 +---------------------------------------------------------------+
 |                                                               |
 |        ####### #     # ####### ####### ####### ######         |
 |        #     # ##    # #          #    #       #     #        |
 |        #     # # #   # #          #    #       #     #        |
 |        #     # #  #  # #####      #    #####   ######         |
 |        #     # #   # # #          #    #       #              |
 |        #     # #    ## #          #    #       #              |
 |        ####### #     # #######    #    ####### #              |
 |                                                               |
 |        Linear-Scaling Ab Initio Total Energy Program          |
 |                                                               |
 |          Release for academic collaborators of ODG            |
 |                                             Version 6.1.59    |
 | Remote: https://github.com/onetep-devel/onetep.git            |
 | Local branch: master                                          |
 | Commit ID: 3df6b8ca88fa1735659d3248d54c94b50edec21b           |
 | Date: Thu Oct 5 13:49:52 2023 +0200                           |
 | Working tree clean                                            |
 |                                                               |
 +---------------------------------------------------------------+
 |                                                               |
 |  Authors:                                                     |
 |  Jacek Dziedzic, Peter D. Haynes, Nicholas D. M. Hine,        |
 |  Arash A. Mostofi, Mike C. Payne and Chris-Kriton Skylaris    |
 |                                                               |
 |  Contributors:                                                |
 |  J. Aarons, L. Andrinopoulos, P. W. Avraam, R. A. Bell,       |
 |  A. Bhandari, G. A. Bramley, R. J. Charlton, S. J. Clark,     |
 |  R. J. Clements, G. C. Constantinescu, F. Corsetti,           |
 |  N. Corsini, O. Dieguez, S. M. M. Dubois, K. K. B. Duff,      |
 |  J. M. Escartin, M. Escobar Azor, A. Greco,                   |
 |  H. Helal, Q. O. Hill, L. P. Lee, J.-H. Li,                   |
 |  E. B. Linscott, G. Moynihan, D. D. O`Regan,                  |
 |  O. K. Okan, M. J. S. Phipps, C. J. Pickard,                  |
 |  J. C. A. Prentice, M. I. J. Probert, L. E. Ratcliff,         |
 |  M. Robinson, A. Ruiz Serrano, M. dos Santos Dias,            |
 |  J. S. Spencer, E. W. Tait, G. Teobaldi, D. Turban,           |
 |  V. Vitale, K. A. Wilkinson, C. Weber, J. C. Womack,          |
 |  N. Yeung and T. J. Zuehlsdorff                               |
 |                                                               |
 |                                   Copyright (c) 2004-2023     |
 |                                                               |
 |  Please cite:                                                 |
 |  "The ONETEP linear-scaling density functional theory program"|
 |   J. Chem. Phys. 152(17) 174111 (2020)                        |
 |                                                               |
 |          in all publications arising from your use of ONETEP. |
 |                                                               |
 +---------------------------------------------------------------+
 |                                                               |
 |   ONETEP is based on developments described in the following  |
 |   publications:                                               |
 |                                                               |
 |  "Nonorthogonal generalized Wannier function pseudopotential  |
 |   plane-wave method".                                         |
 |   C.-K. Skylaris, A. A. Mostofi, P. D. Haynes, O. Dieguez,    |
 |   M. C. Payne.                                                |
 |   Phys. Rev. B 66 035119 (2002).                              |
 |                                                               |
 |  "Preconditioned iterative minimization for linear-scaling    |
 |   electronic structure calculations".                         |
 |   A. A. Mostofi, P. D. Haynes, C.-K. Skylaris, M. C. Payne.   |
 |   J. Chem. Phys. 119(17), pp.8842-8848 (2003).                |
 |                                                               |
 |  "Total-energy calculations on a real space grid with         |
 |   localized functions and a plane-wave basis".                |
 |   A. A. Mostofi, C.-K. Skylaris, P. D. Haynes, M. C. Payne.   |
 |   Comput. Phys. Commun. 147, pp.788-802 (2002).               |
 |                                                               |
 |  "Accurate kinetic energy evaluation in electronic structure  |
 |   calculations with localized functions on real space grids"  |
 |   C.-K. Skylaris, A. A. Mostofi, P. D. Haynes, C. J. Pickard, |
 |   M. C. Payne.                                                |
 |   Comput. Phys. Commun. 140, pp.315-322 (2001).               |
 |                                                               |
 |  "Accurate ionic forces and geometry optimization in linear-  |
 |   scaling density-functional theory with local orbitals"      |
 |   N. D. M. Hine, M. Robinson, P. D. Haynes, C.-K. Skylaris,   |
 |   M. C. Payne, and A. A. Mostofi.                             |
 |   Phys. Rev. B 83 195102 (2011).                              |
 |                                                               |
 +---------------------------------------------------------------+

Job started: 01-11-2023 00:23 (+0000)
 
Reading parameters from file "graphite.dat" ...... done

If your calculation crashes here, before "Checking processes and threads..."
is displayed, then your stack size is insufficient.
If so, use "ulimit -s unlimited" at runtime.
You can disable this check with "check_stack_size F".

Checking processes and threads...
   Determining the default number of threads...
      No default threads set at compilation time: defaulting to 1.
      OpenMP library call suggests 8 threads.
      Hybrid MPI-OpenMP compilation detected.
      Number of MPI processes > 1.
      OMP_NUM_THREADS environment variable present and
      its value matches the one obtained from the OpenMP library call.
      Using this value as default.
      Default threads: 8
      Default applies to threads_max and threads_num_fftboxes.
      Settings in the input file override this default.
   ... done

   Running with 128 MPI processes.
   There are 16 MPI processes running on the same node as the root process.
   Each MPI process is using: 
               1 threads for simulation cell FFTs.
               1 threads for parallel FFT box operations.
               8 threads for loops over batched FFT box operations.
               8 threads in other parallel regions.
   MPI Interface: S1 (use mpi_f08) (-DMPI -DUSE_MPI_F08).
   MPI_ASYNC_PROTECTS_NONBLOCKING: Yes. MPI_SUBARRAYS_SUPPORTED: Yes.
   GPU Interface: None.
... done

Basic input checks...
Resetting ngwf_cg_rotate to TRUE for EDFT calculations
... done

Reading geometry and species blocks from file "graphite.dat" ...
  Reading POSITIONS geometry from str.xyz

  <species_atomic_set> block not found: NGWF initialisation set to SOLVE
IS: Dielectric excluded regions:
    - NONE.
IS: Assigning soft sphere radii for soft sphere solvation...
IS: No soft sphere radii specified. Default Alvarez radii used for all atoms.

----------- SOFT SPHERE RADII -----------
Li  5.333
C   4.442
-----------------------------------------

    
  Number of PPD points along a3 set to 1.  This is 
  the default value, it may have been provided also in the input file.
... done


--------------------------------------------------------------------------------
---------------------------------- INPUT FILE ----------------------------------
--------------------------------------------------------------------------------

task geometryoptimization                                                       
geom_method LBFGS                                                               
geom_continuation T                                                             
write_xyz T                                                                     
edft_grand_canonical T                                                          
edft_reference_potential  -4.42 eV                                              
edft_electrode_potential -0.10 V                                                
edft_nelec_thres 0.000001                                                       
is_dielectric_function soft_sphere                                              
is_implicit_solvent T                                                           
is_smeared_ion_rep T                                                            
is_include_apolar T                                                             
is_solvation_properties F                                                       
is_pbe                    full                                                  
is_pbe_temperature        298.15                                                
is_pbe_bc_debye_screening T                                                     
is_pbe_neutralisation_scheme counterions_auto                                   
is_pbe_energy_tolerance 1E+50                                                   
is_bc_coarseness 5                                                              
is_bc_threshold 1E-9                                                            
is_bulk_permittivity 90.7                                                       
is_solvent_surf_tension 0.0506 N/m                                              
%block sol_ions                                                                 
Li  +1 1.0                                                                      
PF6 -1 1.0                                                                      
%endblock sol_ions                                                              
is_steric_pot_type M                                                            
is_hc_steric_dens_isovalue  0.001                                               
is_hc_steric_smearing         0.4 bohr                                          
is_steric_write T                                                               
%block species_solvent_radius                                                   
Li 3.0                                                                          
C 3.0                                                                           
%endblock species_solvent_radius                                                
multigrid_bc:   P P P                                                           
ion_ion_bc:     P P P                                                           
pspot_bc:       P P P                                                           
smeared_ion_bc: P P P                                                           
mg_max_iters_vcycle 500                                                         
mg_vcyc_smoother_iter_pre 4                                                     
mg_vcyc_smoother_iter_post 4                                                    
mg_max_res_ratio 1000.0                                                         
mg_max_iters_newton 300                                                         
edft                    : T                                                     
edft_smearing_width     : 0.1 eV                                                
spin                    : 0.0                                                   
edft_spin_fix           : 2                                                     
spin_polarized          : T                                                     
cutoff_energy :  1000 eV                                                        
kernel_cutoff : 1000 bohr                                                       
xc_functional PBE                                                               
dispersion 4                                                                    
output_detail VERBOSE                                                           
do_properties T                                                                 
cube_format F                                                                   
dx_format F                                                                     
write_denskern T                                                                
write_tightbox_ngwfs T                                                          
write_hamiltonian T                                                             
%block species                                                                  
Li Li 3  5  8.0                                                                 
C  C  6  4  8.0                                                                 
%endblock species                                                               
%block species_pot                                                              
Li '/work/e89/e89/arihant/pseudo/Li.usp'                                        
C '/work/e89/e89/arihant/pseudo/C.usp'                                          
%endblock species_pot                                                           
%BLOCK LATTICE_CART                                                             
ang                                                                             
34.16920551     0.00000000     0.00000000                                       
0.00000000    19.72760000     0.00000000                                        
0.00000000     0.00000000   100.02798000                                        
%ENDBLOCK LATTICE_CART                                                          
positions_xyz_file str.xyz                                                      
     Hash =  -000004979846917552924686

--------------------------------------------------------------------------------
-------------------------------- END INPUT FILE --------------------------------
--------------------------------------------------------------------------------


 
 ESDF WARNING(1): "ispbeenergytolerance" (esdf_physical) has no units. Assume "hartree".
<<<<<<<<<<<<<<<<<<<<<<<<<<<<<<<<< Full system >>>>>>>>>>>>>>>>>>>>>>>>>>>>>>>>>>
<<<<<<<<<<<<<<<<<<<<<<<<< Pseudopotential information >>>>>>>>>>>>>>>>>>>>>>>>>>
File: /work/e89/e89/arihant/pseudo/Li.usp [ 2001 points up to Gmax=  52.9 (1/bohr)]
  Atomic number:  3;  ionic charge:  3.000000
    Shell 1: l = 0; rc = 1.19 bohr
    Shell 2: l = 0; rc = 1.25 bohr
File: /work/e89/e89/arihant/pseudo/C.usp [ 2001 points up to Gmax=  52.9 (1/bohr)]
  Atomic number:  6;  ionic charge:  4.000000
    Shell 1: l = 0; rc = 1.19 bohr
  Core charge supplied for Nonlinear Core Corrections
<<<<<<<<<<<<<<<<<<<<<<<<<<<<<<<<<<<<<<<<>>>>>>>>>>>>>>>>>>>>>>>>>>>>>>>>>>>>>>>>

-------------------------- Atom counting information ---------------------------
Symbol    Natoms    Nngwfs    Nprojs
  Li        96       480       192
  C        512      2048       512
.......   ......    ......    ......
Totals:    608      2528       704
--------------------------------------------------------------------------------

=============================== PSINC grid sizes ===============================
                      Simulation cell:  143 x  91 x 416
                              FFT-box:  117 x  91 x 117
                                  PPD:   11 x   7 x   1
Grid space d1=  0.451541543008a0 (KE cutoff=  37.25706Eh =1013.81618eV)
Grid space d2=  0.409667706512a0 (KE cutoff=  45.26271Eh =1231.66098eV)
Grid space d3=  0.454388192297a0 (KE cutoff=  36.79171Eh =1001.15326eV)
================================================================================
  
WARNING in cell_grid_distribute:
Average of less than one 23-slab per proc, so workload cannot be
equally balanced between procs.

********************* Fourier parallelisation information **********************
       Coarse grid (whole simulation cell) dimensions:    143    91   416
          Real-space ('12') slabs/proc (min max mean):      3     4     3
         Recip-space ('23') slabs/proc (min max mean):      0     1     0
********************************************************************************

********************* Fourier parallelisation information **********************
       Double grid (whole simulation cell) dimensions:    286   182   832
          Real-space ('12') slabs/proc (min max mean):      6     7     6
         Recip-space ('23') slabs/proc (min max mean):      1     2     1
********************************************************************************

********************* Fourier parallelisation information **********************
         Fine grid (whole simulation cell) dimensions:    288   184   832
          Real-space ('12') slabs/proc (min max mean):      6     7     6
         Recip-space ('23') slabs/proc (min max mean):      1     2     1
         Grid scale modified to satisfy multigrid solver grid constraints
         Grid scale values after modifification:         2.01  2.02  2.00
********************************************************************************
ONETEP fine grid is 288 x 184 x 832 gridpoints, 64.5704 x 37.2798 x 189.0255 bohr.
FD multigrid is     288 x 184 x 832 gridpoints, 64.5704 x 37.2798 x 189.0255 bohr.


Atom SCF Calculation for Li : Z (AE atom) =   3 : Z (PS atom) =   3
Config String:
Orbitals (num,occ):  3     2.00 1.00 0.00
Orbitals   (num,l):  3        0    0    1
Real-space Grid (nr,dr,rmax): 1343    0.0059612519    8.0000000000
Spherical Bessel Basis (nsws,lmax,cutoff):   37    1  220.4959463253
Confining potential (l,width,scale):  0    3.0000000000  100.0000000000
Confining potential (l,width,scale):  1    3.0000000000  100.0000000000
  1         -3.7050169094   -5.2301177776    2.5388568852   -0.9989538802
  2         -6.0510920273   -4.2679357854    3.2724001845   -1.3422946715
  3         -6.7975021434   -3.8722499620    3.6648237887   -1.5325279919
  4         -7.0147472228   -3.7673066376    3.7864613280   -1.5966989055
  5         -7.0774132854   -3.7446783348    3.8157063634   -1.6161454686
  6         -7.0951992563   -3.7420177453    3.8204515040   -1.6217593843
  7         -7.1001226024   -3.7430426481    3.8200527077   -1.6233132433
  8         -7.1014239576   -3.7441529610    3.8191274553   -1.6237164860
  9         -7.1017352306   -3.7448434699    3.8184905098   -1.6238077213
 10         -7.1017916056   -3.7452114113    3.8181373932   -1.6238209669
 11         -7.1017908912   -3.7453946820    3.8179578223   -1.6238181917
 12         -7.1017822190   -3.7454828903    3.8178702968   -1.6238141227
 13         -7.1017768840   -3.7455162316    3.8178369316   -1.6238119017
 14         -7.1017732849   -3.7455353767    3.8178176959   -1.6238104459
 15         -7.1017709700   -3.7455463461    3.8178066371   -1.6238095253
 16         -7.1017695244   -3.7455526225    3.8178002910   -1.6238089565
 17         -7.1017686390   -3.7455562110    3.8177966534   -1.6238086105
 18         -7.1017681040   -3.7455582619    3.8177945697   -1.6238084022
 19         -7.1017677838   -3.7455594341    3.8177933764   -1.6238082778
 20         -7.1017675934   -3.7455601042    3.8177926929   -1.6238082039
 21         -7.1017674808   -3.7455604874    3.8177923014   -1.6238081602
 22         -7.1017674145   -3.7455607066    3.8177920771   -1.6238081344
Atom SCF converged after  22 iterations to a total energy of     -7.10176741

Atom SCF Calculation for C  : Z (AE atom) =   6 : Z (PS atom) =   4
Config String:
Orbitals (num,occ):  2     2.00 2.00
Orbitals   (num,l):  2        0    1
Real-space Grid (nr,dr,rmax): 1343    0.0059612519    8.0000000000
Spherical Bessel Basis (nsws,lmax,cutoff):   37    1  220.4959463253
Confining potential (l,width,scale):  0    3.0000000000  100.0000000000
Confining potential (l,width,scale):  1    3.0000000000  100.0000000000
  1         -5.8177092822   -1.2555419264    4.5135233515   -1.7471920893
  2         -5.6032261188   -1.3440047989    4.4246587726   -1.7090653419
  3         -5.5936068668   -1.3561735374    4.4140765627   -1.7034094417
  4         -5.5958505747   -1.3587284552    4.4121342699   -1.7022848669
  5         -5.5969687665   -1.3601698222    4.4109982405   -1.7017057890
  6         -5.5975400979   -1.3609792837    4.4103423276   -1.7013975981
  7         -5.5978435204   -1.3614297943    4.4099696476   -1.7012314972
  8         -5.5980096069   -1.3616786122    4.4097605138   -1.7011416075
  9         -5.5981021113   -1.3618152853    4.4096441572   -1.7010929151
 10         -5.5981539939   -1.3618900852    4.4095797860   -1.7010665406
 11         -5.5981831160   -1.3619309228    4.4095443105   -1.7010522599
 12         -5.5981994243   -1.3619531807    4.4095248124   -1.7010445305
 13         -5.5982085235   -1.3619652972    4.4095141175   -1.7010403487
 14         -5.5982135796   -1.3619718867    4.4095082606   -1.7010380870
 15         -5.5982163780   -1.3619754676    4.4095050573   -1.7010368642
 16         -5.5982179208   -1.3619774123    4.4095033073   -1.7010362032
 17         -5.5982187685   -1.3619784678    4.4095023522   -1.7010358460
 18         -5.5982192328   -1.3619790404    4.4095018314   -1.7010356530
 19         -5.5982194864   -1.3619793509    4.4095015476   -1.7010355488
 20         -5.5982196245   -1.3619795192    4.4095013931   -1.7010354925
 21         -5.5982196995   -1.3619796104    4.4095013090   -1.7010354621
Atom SCF converged after  21 iterations to a total energy of     -5.59821970

BC: Task: GEOMETRYOPTIMIZATION
BC: +++++++++++++++ Summary of boundary conditions ++++++++++++++
BC: |       Component       |     Keyword     |   Periodicity   |
BC: |                       |                 |     X  Y  Z [1] |
BC: |-----------------------------------------------------------|
BC: | Ion-ion               | ion_ion_bc [2]  |     P  P  P     |
BC: | Local pseudopotential | pspot_bc [3]    |     P  P  P     |
BC: | Multigrid solver      | multigrid_bc    |     P  P  P     |
BC: | Smeared ions          | smeared_ion_bc  |     P  P  P     |
BC: | Van der Waals         | vdw_bc          |     P  P  P     |
BC: +++++++++++++++++++++++++++++++++++++++++++++++++++++++++++++
BC: P: Periodic, O: Open.
BC: [1] Not strictly along X, Y, Z but rather along lattice vectors A1, A2, A3.
BC: [2] Also affected by: pbc_correction_cutoff, cutoff_coulomb_type,
BC:     is_smeared_ion_rep, is_implicit_solvent, openbc_ion_ion.
BC: [3] Also affected by: is_smeared_ion_rep, is_implicit_solvent, openbc_pspot.

================================================================================
<<<<<<<<<<<<<<<< Resuming previous ONETEP Geometry Optimisation >>>>>>>>>>>>>>>>
================================================================================

 Geometry Optimisation: output file is "graphite.geom"
 
 Reading continuation file "graphite.continuation" ...done
 Geometry Optimisation: read_tightbox_ngwfs parameter over-ridden to TRUE
 Geometry Optimisation: read_hamiltonian parameter over-ridden to T
 
                           -------------------------------
                                     Cell Contents
                           -------------------------------
 
            xxxxxxxxxxxxxxxxxxxxxxxxxxxxxxxxxxxxxxxxxxxxxxxxxxxxxxxxxxxx
            x  Element    Atom      Absolute co-ordinates of atoms     x
            x            Number        x           y           z       x
            x----------------------------------------------------------x
            x    Li        1        0.049344   37.157721   16.257874   x
            x    Li        2        0.051009   27.836882   16.259460   x
            x    Li        3        0.046010   18.515067   16.257754   x
            x    Li        4        0.043774    9.196211   16.257337   x
            x    Li        5        0.050411   32.497561   16.305030   x
            x    Li        6        0.048176   23.176216   16.305496   x
            x    Li        7        0.045122   13.858578   16.303388   x
            x    Li        8        0.046443    4.537279   16.303924   x
            x    Li        9        8.137423   37.157424   16.305000   x
            x    Li       10        8.139174   27.839184   16.304607   x
            x    Li       11        8.141366   18.513887   16.302940   x
            x    Li       12        8.147082    9.199097   16.298442   x
            x    Li       13        8.138749   32.494782   16.257477   x
            x    Li       14        8.138718   23.177139   16.259512   x
            x    Li       15        8.147616   13.855813   16.250939   x
            x    Li       16        8.141356    4.538393   16.256477   x
            x    Li       17       16.237217    9.200779   16.235389   x
            x    Li       18       16.236528   18.508495   16.251073   x
            x    Li       19       16.235832   27.836927   16.256369   x
            x    Li       20       16.236301   37.160466   16.259697   x
            x    Li       21       16.235432   32.494539   16.303821   x
            x    Li       22       16.235692   23.175447   16.302969   x
            x    Li       23       16.236386   13.851704   16.283330   x
            x    Li       24       16.235849    4.548495   16.294987   x
            x    Li       25       24.327980   32.494813   16.256835   x
            x    Li       26       24.328012   23.177118   16.258533   x
            x    Li       27       24.314656   13.856080   16.252150   x
            x    Li       28       24.322812    4.538160   16.257504   x
            x    Li       29       24.325881   37.156845   16.304815   x
            x    Li       30       24.325944   27.838945   16.303688   x
            x    Li       31       24.321439   18.514684   16.302572   x
            x    Li       32       24.314887    9.198805   16.299199   x
            x    Li       33       32.403162   37.156650   16.260512   x
            x    Li       34       32.401568   27.836871   16.259680   x
            x    Li       35       32.407741   18.516374   16.260412   x
            x    Li       36       32.409423    9.196038   16.261831   x
            x    Li       37       32.401102   32.496343   16.306410   x
            x    Li       38       32.403383   23.177384   16.306809   x
            x    Li       39       32.407802   13.859537   16.307762   x
            x    Li       40       32.405909    4.536430   16.307993   x
            x    Li       41       40.468017   32.493370   16.259422   x
            x    Li       42       40.455886   23.179362   16.264776   x
            x    Li       43       40.453641   13.857164   16.264440   x
            x    Li       44       40.453374    4.536723   16.266253   x
            x    Li       45       40.460896   37.156976   16.310497   x
            x    Li       46       40.467987   27.839923   16.304691   x
            x    Li       47       40.456015   18.514700   16.312244   x
            x    Li       48       40.457453    9.198561   16.312616   x
            x    Li       49       48.482602   37.151043   16.258168   x
            x    Li       50       48.482931   27.841392   16.241016   x
            x    Li       51       48.482702   18.517748   16.266804   x
            x    Li       52       48.482306    9.196354   16.263866   x
            x    Li       53       48.483623   32.488760   16.290019   x
            x    Li       54       48.484021   23.189515   16.302017   x
            x    Li       55       48.483124   13.857259   16.310189   x
            x    Li       56       48.483114    4.534999   16.309273   x
            x    Li       57       56.523576   32.494675   16.254690   x
            x    Li       58       56.532201   23.178285   16.260034   x
            x    Li       59       56.537378   13.856224   16.258705   x
            x    Li       60       56.537350    4.537252   16.260436   x
            x    Li       61       56.535884   37.156511   16.304978   x
            x    Li       62       56.527704   27.839607   16.300683   x
            x    Li       63       56.540192   18.515052   16.307282   x
            x    Li       64       56.539780    9.198249   16.306078   x
            x    C        65       18.927000    9.197687   12.818210   x
            x    C        66       13.519370    9.197828   12.820607   x
            x    C        67       14.862688   11.534321   12.825231   x
            x    C        68       17.583926   11.533452   12.820990   x
            x    C        69       51.206558   27.837636   12.817367   x
            x    C        70       45.802167   27.837362   12.814313   x
            x    C        71       47.142282   30.173490   12.820913   x
            x    C        72       49.865801   30.173831   12.822059   x
            x    C        73       14.862481    6.860617   12.834614   x
            x    C        74       17.584365    6.861279   12.830462   x
            x    C        75       21.593255   13.857542   12.826856   x
            x    C        76       18.925757   13.857384   12.794589   x
            x    C        77       13.520399   13.857616   12.798054   x
            x    C        78       14.862911   16.179744   12.838594   x
            x    C        79       17.583794   16.180021   12.834313   x
            x    C        80       47.142030   25.500946   12.830439   x
            x    C        81       49.865736   25.501143   12.831329   x
            x    C        82       53.870062   32.497135   12.822991   x
            x    C        83       51.205945   32.497401   12.797527   x
            x    C        84       45.803258   32.497385   12.792153   x
            x    C        85       47.141784   34.820439   12.835402   x
            x    C        86       49.865781   34.820215   12.836579   x
            x    C        87       14.863180    2.217741   12.846442   x
            x    C        88       17.583773    2.217721   12.842269   x
            x    C        89       22.936455    2.200962   12.851466   x
            x    C        90        9.509240    2.201188   12.850320   x
            x    C        91       63.283497    2.214220   12.843608   x
            x    C        92        6.787048    2.200168   12.850444   x
            x    C        93       31.009819    2.214254   12.848721   x
            x    C        94        1.432393    2.214230   12.846117   x
            x    C        95       25.659248    2.200934   12.846384   x
            x    C        96       33.730110    2.213754   12.842043   x
            x    C        97       39.075641    2.200102   12.852184   x
            x    C        98       55.210911    2.201110   12.845105   x
            x    C        99       57.933596    2.200618   12.849387   x
            x    C       100       47.142646    2.215588   12.840421   x
            x    C       101       41.799095    2.201216   12.845634   x
            x    C       102       49.864851    2.215748   12.841561   x
            x    C       103       18.926188    4.539460   12.804299   x
            x    C       104       13.520155    4.538933   12.807508   x
            x    C       105       10.853009    4.538971   12.835474   x
            x    C       106       27.000926    4.537924   12.835441   x
            x    C       107        5.444073    4.537847   12.836934   x
            x    C       108       21.592594    4.538918   12.833711   x
            x    C       109       59.276423    4.536260   12.836486   x
            x    C       110        2.775424    4.537444   12.816169   x
            x    C       111       35.069446    4.536311   12.808175   x
            x    C       112       61.943359    4.536745   12.806412   x
            x    C       113       29.667973    4.537203   12.816072   x
            x    C       114       43.139621    4.538515   12.834291   x
            x    C       115       51.205843    4.539103   12.812652   x
            x    C       116       37.734579    4.535947   12.836884   x
            x    C       117       53.870138    4.538204   12.832193   x
            x    C       118       45.803003    4.538904   12.807218   x
            x    C       119       22.934272    6.876331   12.842317   x
            x    C       120       63.284375    6.859540   12.846808   x
            x    C       121        6.788409    6.875596   12.844938   x
            x    C       122       31.007118    6.860492   12.853914   x
            x    C       123       39.077253    6.873222   12.847683   x
            x    C       124       57.931867    6.872973   12.844566   x
            x    C       125        1.434344    6.860938   12.850295   x
            x    C       126        9.510468    6.876195   12.840742   x
            x    C       127       25.657390    6.875441   12.841621   x
            x    C       128       33.729284    6.859675   12.846107   x
            x    C       129       55.208388    6.875040   12.842469   x
            x    C       130       47.142023    6.861896   12.847468   x
            x    C       131       41.800969    6.874943   12.843312   x
            x    C       132       49.865222    6.862327   12.848698   x
            x    C       133       51.205433    9.198516   12.835809   x
            x    C       134       59.275542    9.198244   12.812715   x
            x    C       135        2.776329    9.198653   12.838651   x
            x    C       136       27.000659    9.198552   12.809715   x
            x    C       137       35.069051    9.198563   12.833325   x
            x    C       138       43.140308    9.198550   12.808919   x
            x    C       139       53.869123    9.198990   12.805514   x
            x    C       140       61.944180    9.198401   12.832130   x
            x    C       141        5.444278    9.198304   12.810622   x
            x    C       142       21.593270    9.198611   12.802241   x
            x    C       143       29.666813    9.198946   12.839634   x
            x    C       144       37.735826    9.198162   12.812448   x
            x    C       145       45.803134    9.198562   12.832728   x
            x    C       146       10.852500    9.198684   12.803542   x
            x    C       147       47.142612   11.533759   12.843391   x
            x    C       148       55.208379   11.522104   12.844808   x
            x    C       149       63.284887   11.536649   12.842529   x
            x    C       150       31.007363   11.536452   12.850362   x
            x    C       151       39.076901   11.522801   12.849449   x
            x    C       152       49.864905   11.533704   12.844480   x
            x    C       153       57.932279   11.523327   12.846889   x
            x    C       154        1.434500   11.535971   12.846133   x
            x    C       155       33.728855   11.536636   12.842125   x
            x    C       156       41.801084   11.521857   12.845432   x
            x    C       157        6.787797   11.520310   12.846029   x
            x    C       158       22.935307   11.520059   12.842240   x
            x    C       159       25.658358   11.521018   12.842993   x
            x    C       160        9.509943   11.520252   12.840698   x
            x    C       161       45.802691   13.856265   12.807487   x
            x    C       162       43.139461   13.858556   12.833208   x
            x    C       163       51.206307   13.856589   12.813012   x
            x    C       164       59.276121   13.861109   12.834746   x
            x    C       165       35.070145   13.859956   12.807052   x
            x    C       166       53.870142   13.858437   12.831682   x
            x    C       167       61.942607   13.859942   12.805719   x
            x    C       168       29.667096   13.859218   12.815705   x
            x    C       169       37.735177   13.860819   12.834527   x
            x    C       170        2.776325   13.858725   12.815474   x
            x    C       171       27.000471   13.858909   12.833321   x
            x    C       172        5.444925   13.858788   12.834265   x
            x    C       173       10.852387   13.857549   12.828883   x
            x    C       174       47.141944   16.179375   12.848883   x
            x    C       175       55.211849   16.194059   12.841762   x
            x    C       176       41.797756   16.194130   12.842014   x
            x    C       177       49.865538   16.179631   12.850301   x
            x    C       178       39.075744   16.195864   12.846856   x
            x    C       179       63.283116   16.181634   12.846766   x
            x    C       180       31.009188   16.181129   12.852611   x
            x    C       181       57.933077   16.195431   12.844475   x
            x    C       182       33.729898   16.181566   12.844897   x
            x    C       183        6.786696   16.196127   12.843937   x
            x    C       184        1.432716   16.181354   12.849774   x
            x    C       185       25.659522   16.195347   12.839950   x
            x    C       186       22.937617   16.194989   12.841957   x
            x    C       187        9.508161   16.194739   12.841019   x
            x    C       188       51.206156   18.518911   12.837925   x
            x    C       189       45.802561   18.519185   12.834936   x
            x    C       190       43.137953   18.517382   12.810993   x
            x    C       191       53.871376   18.517208   12.808093   x
            x    C       192       35.069837   18.517677   12.833415   x
            x    C       193       59.276499   18.517204   12.814488   x
            x    C       194       37.734833   18.517147   12.813109   x
            x    C       195       61.943286   18.517992   12.833867   x
            x    C       196       29.666910   18.517958   12.838103   x
            x    C       197        2.776468   18.518605   12.838802   x
            x    C       198       27.000577   18.518830   12.808787   x
            x    C       199        5.444432   18.519288   12.811392   x
            x    C       200       10.851666   18.518208   12.812101   x
            x    C       201       18.925529   18.518479   12.830182   x
            x    C       202       21.593924   18.518214   12.810376   x
            x    C       203       13.520459   18.518106   12.832462   x
            x    C       204       47.142281   20.857805   12.842970   x
            x    C       205       49.864988   20.857533   12.843747   x
            x    C       206       55.209764   20.841460   12.847319   x
            x    C       207       41.799977   20.841578   12.847341   x
            x    C       208       31.008663   20.853891   12.848375   x
            x    C       209       39.075385   20.840619   12.851994   x
            x    C       210       63.284235   20.854365   12.844551   x
            x    C       211       33.729819   20.854072   12.841359   x
            x    C       212       57.934086   20.840463   12.850553   x
            x    C       213        1.433074   20.853903   12.846913   x
            x    C       214        6.787290   20.840499   12.851545   x
            x    C       215       22.936743   20.841143   12.850139   x
            x    C       216       25.659002   20.841122   12.846424   x
            x    C       217       14.863332   20.855984   12.844454   x
            x    C       218        9.508506   20.841084   12.849987   x
            x    C       219       17.583830   20.856133   12.840321   x
            x    C       220       51.205862   23.179201   12.806645   x
            x    C       221       45.802950   23.179425   12.801890   x
            x    C       222       43.140719   23.179023   12.831122   x
            x    C       223       59.277176   23.177868   12.838687   x
            x    C       224       37.733900   23.177906   12.836431   x
            x    C       225       53.869251   23.179288   12.829607   x
            x    C       226       27.000538   23.176652   12.834944   x
            x    C       227       35.069102   23.177995   12.808520   x
            x    C       228        2.775543   23.176571   12.817202   x
            x    C       229       29.667181   23.176781   12.814196   x
            x    C       230       61.943649   23.177392   12.809967   x
            x    C       231       10.852269   23.178531   12.840356   x
            x    C       232       18.926699   23.179182   12.810964   x
            x    C       233        5.444425   23.176167   12.838394   x
            x    C       234       21.593474   23.178226   12.837510   x
            x    C       235       13.520093   23.179018   12.814522   x
            x    C       236       55.208409   25.516044   12.837316   x
            x    C       237       31.009761   25.499470   12.850770   x
            x    C       238       39.076782   25.515175   12.845953   x
            x    C       239       63.282248   25.500419   12.849946   x
            x    C       240        6.789098   25.512844   12.846919   x
            x    C       241       25.657212   25.512611   12.841085   x
            x    C       242       33.731364   25.501062   12.845234   x
            x    C       243       41.801632   25.515706   12.837171   x
            x    C       244       57.932351   25.515077   12.845030   x
            x    C       245        1.432224   25.499499   12.851268   x
            x    C       246       22.934860   25.514753   12.847406   x
            x    C       247       14.863106   25.501839   12.851398   x
            x    C       248        9.510419   25.514961   12.847205   x
            x    C       249       17.584171   25.501991   12.847439   x
            x    C       250       18.925248   27.838421   12.836217   x
            x    C       251       26.999809   27.837618   12.806331   x
            x    C       252       35.069910   27.838629   12.833377   x
            x    C       253       59.276129   27.838365   12.815015   x
            x    C       254        2.775041   27.838416   12.838223   x
            x    C       255       10.853142   27.838752   12.814576   x
            x    C       256       21.592198   27.838634   12.813056   x
            x    C       257       29.668163   27.838104   12.834609   x
            x    C       258       37.734545   27.838163   12.812008   x
            x    C       259       53.869769   27.838258   12.793661   x
            x    C       260       61.942926   27.838583   12.836037   x
            x    C       261        5.445393   27.837653   12.810659   x
            x    C       262       13.520773   27.838386   12.838012   x
            x    C       263       43.139655   27.838353   12.796817   x
            x    C       264       14.863446   30.173685   12.847233   x
            x    C       265       22.934797   30.161775   12.849568   x
            x    C       266       31.009999   30.176544   12.846185   x
            x    C       267       63.282291   30.175852   12.845731   x
            x    C       268        6.788688   30.162514   12.848603   x
            x    C       269       17.583584   30.173516   12.843111   x
            x    C       270       25.657799   30.162963   12.842939   x
            x    C       271       33.731288   30.175110   12.841153   x
            x    C       272        1.431412   30.176798   12.846933   x
            x    C       273        9.510557   30.161737   12.849119   x
            x    C       274       39.076295   30.160591   12.847508   x
            x    C       275       55.208973   30.160106   12.837481   x
            x    C       276       57.932959   30.160719   12.846700   x
            x    C       277       41.800778   30.160493   12.837282   x
            x    C       278       13.519455   32.496262   12.814642   x
            x    C       279       10.851747   32.498424   12.839151   x
            x    C       280       18.926719   32.496141   12.811364   x
            x    C       281       26.999805   32.500628   12.832777   x
            x    C       282        2.776569   32.499666   12.815436   x
            x    C       283       21.593470   32.498674   12.836875   x
            x    C       284       29.666644   32.499831   12.812691   x
            x    C       285       61.942983   32.498531   12.809191   x
            x    C       286        5.445299   32.500804   12.835884   x
            x    C       287       35.069998   32.498419   12.808560   x
            x    C       288       59.276705   32.498580   12.836560   x
            x    C       289       37.734677   32.498688   12.834958   x
            x    C       290       43.139844   32.497407   12.824184   x
            x    C       291       14.862390   34.819595   12.853072   x
            x    C       292       22.937869   34.834313   12.846773   x
            x    C       293        9.507434   34.834004   12.846208   x
            x    C       294       17.584634   34.819643   12.849352   x
            x    C       295        6.787514   34.835842   12.846227   x
            x    C       296       31.008166   34.821759   12.851119   x
            x    C       297       63.283515   34.821350   12.848585   x
            x    C       298       25.658800   34.835346   12.841148   x
            x    C       299        1.433596   34.821580   12.849945   x
            x    C       300       39.074843   34.835871   12.846239   x
            x    C       301       33.730407   34.821771   12.845631   x
            x    C       302       57.934188   34.835568   12.843984   x
            x    C       303       55.210489   34.834544   12.837749   x
            x    C       304       41.799231   34.834215   12.838004   x
            x    C       305       18.926281   37.159232   12.838257   x
            x    C       306       13.519553   37.159352   12.840176   x
            x    C       307       10.850661   37.157076   12.816930   x
            x    C       308       21.594765   37.157270   12.815586   x
            x    C       309        2.776007   37.157642   12.838275   x
            x    C       310       27.000384   37.157361   12.808523   x
            x    C       311        5.444334   37.157107   12.811265   x
            x    C       312       29.666717   37.158217   12.836866   x
            x    C       313       61.942671   37.158903   12.835152   x
            x    C       314       35.069897   37.158975   12.834761   x
            x    C       315       59.276325   37.159131   12.814781   x
            x    C       316       37.734334   37.159077   12.813777   x
            x    C       317       43.139066   37.157951   12.806115   x
            x    C       318       51.205940   37.158395   12.830544   x
            x    C       319       53.870460   37.158414   12.803367   x
            x    C       320       45.802837   37.158778   12.827299   x
            x    Li      321        0.061479   37.151597    9.408515   x
            x    Li      322        0.061869   27.830536    9.409204   x
            x    Li      323        0.061847   18.509174    9.408301   x
            x    Li      324        0.061617    9.189669    9.407693   x
            x    Li      325        8.143613   32.488644    9.409240   x
            x    Li      326        8.143680   23.171378    9.410331   x
            x    Li      327        8.143602   13.851374    9.404692   x
            x    Li      328        8.144253    4.530066    9.407847   x
            x    Li      329       16.227124    9.190423    9.393999   x
            x    Li      330       16.227206   18.507928    9.402823   x
            x    Li      331       16.227010   27.830653    9.408711   x
            x    Li      332       16.227263   37.152556    9.409203   x
            x    Li      333       24.308425   32.488633    9.406964   x
            x    Li      334       24.308351   23.171109    9.407895   x
            x    Li      335       24.308355   13.851296    9.403420   x
            x    Li      336       24.307801    4.530065    9.406371   x
            x    Li      337       32.381161   37.151560    9.408085   x
            x    Li      338       32.380917   27.830435    9.406836   x
            x    Li      339       32.380759   18.509243    9.407943   x
            x    Li      340       32.380991    9.189643    9.408764   x
            x    Li      341       40.440820   32.488633    9.403237   x
            x    Li      342       40.441258   23.171590    9.406411   x
            x    Li      343       40.440719   13.851224    9.407319   x
            x    Li      344       40.440905    4.529626    9.408091   x
            x    Li      345       48.494632   37.150291    9.401324   x
            x    Li      346       48.494388   27.831109    9.391898   x
            x    Li      347       48.494584   18.510313    9.407566   x
            x    Li      348       48.494632    9.189647    9.407046   x
            x    Li      349       56.556748   32.488625    9.403040   x
            x    Li      350       56.556306   23.171642    9.406291   x
            x    Li      351       56.556897   13.851379    9.406111   x
            x    Li      352       56.556720    4.529788    9.406637   x
            x    C       353       18.915788    9.192922    5.972160   x
            x    C       354       13.524945    9.192820    5.962780   x
            x    C       355       14.869266   11.528402    5.973205   x
            x    C       356       17.571271   11.528092    5.961328   x
            x    C       357       51.200088   27.832897    5.972382   x
            x    C       358       45.809970   27.832539    5.959772   x
            x    C       359       47.154176   30.168106    5.971589   x
            x    C       360       49.855942   30.168352    5.961431   x
            x    C       361       14.868932    6.856988    5.974568   x
            x    C       362       17.571407    6.857376    5.962703   x
            x    C       363       21.594736   13.851882    5.968738   x
            x    C       364       18.907961   13.851692    5.994701   x
            x    C       365       13.532371   13.851757    5.984428   x
            x    C       366       14.869110   16.175268    5.978252   x
            x    C       367       17.571178   16.175254    5.966128   x
            x    C       368       47.153910   25.496906    5.972920   x
            x    C       369       49.856088   25.497037    5.962557   x
            x    C       370       53.879149   32.491374    5.965458   x
            x    C       371       51.192492   32.491797    5.993967   x
            x    C       372       45.817971   32.491529    5.982963   x
            x    C       373       47.154048   34.815069    5.977159   x
            x    C       374       49.856020   34.815238    5.966654   x
            x    C       375       14.869000    2.211272    5.987736   x
            x    C       376       17.571142    2.211381    5.975509   x
            x    C       377       22.940160    2.197309    5.987324   x
            x    C       378        9.500103    2.197179    5.977148   x
            x    C       379       63.296718    2.208174    5.988582   x
            x    C       380        6.795880    2.195732    5.989076   x
            x    C       381       31.012996    2.208120    5.990661   x
            x    C       382        1.427215    2.208049    5.979288   x
            x    C       383       25.644264    2.195835    5.975570   x
            x    C       384       33.713795    2.208165    5.977500   x
            x    C       385       39.082241    2.195751    5.988922   x
            x    C       386       55.225497    2.197874    5.984653   x
            x    C       387       57.928137    2.196311    5.976172   x
            x    C       388       47.153869    2.211042    5.984468   x
            x    C       389       41.785251    2.197864    5.975844   x
            x    C       390       49.856288    2.210544    5.973825   x
            x    C       391       18.908283    4.534434    6.000473   x
            x    C       392       13.532323    4.534140    5.990524   x
            x    C       393       10.846158    4.533892    5.985484   x
            x    C       394       26.989522    4.532290    5.986673   x
            x    C       395        5.450801    4.532133    5.976981   x
            x    C       396       21.594558    4.533993    5.973277   x
            x    C       397       59.272466    4.530676    5.988749   x
            x    C       398        2.763437    4.532109    6.008310   x
            x    C       399       35.050081    4.531250    6.007917   x
            x    C       400       61.959870    4.531266    5.995880   x
            x    C       401       29.676868    4.531996    5.996803   x
            x    C       402       43.131247    4.533080    5.987669   x
            x    C       403       51.192973    4.534560    6.004867   x
            x    C       404       37.737589    4.530448    5.978032   x
            x    C       405       53.879263    4.533003    5.972861   x
            x    C       406       45.817100    4.534512    5.993875   x
            x    C       407       22.938222    6.869799    5.985352   x
            x    C       408       63.297970    6.854774    5.986358   x
            x    C       409        6.797639    6.868860    5.988406   x
            x    C       410       31.011182    6.856121    5.989610   x
            x    C       411       39.084346    6.866560    5.991052   x
            x    C       412       57.925868    6.866509    5.978186   x
            x    C       413        1.428876    6.856472    5.977136   x
            x    C       414        9.501877    6.869650    5.975018   x
            x    C       415       25.642244    6.868917    5.975303   x
            x    C       416       33.712389    6.854765    5.976414   x
            x    C       417       55.222330    6.868462    5.987694   x
            x    C       418       47.153762    6.857639    5.986732   x
            x    C       419       41.788186    6.868283    5.978777   x
            x    C       420       49.855810    6.858104    5.975786   x
            x    C       421       51.199705    9.193122    5.987958   x
            x    C       422       59.264389    9.192989    6.006170   x
            x    C       423        2.771815    9.193163    5.989039   x
            x    C       424       26.981201    9.192992    6.006405   x
            x    C       425       35.056128    9.192667    5.987155   x
            x    C       426       43.124298    9.193112    6.007570   x
            x    C       427       53.886120    9.193188    5.994777   x
            x    C       428       61.954491    9.192946    5.973931   x
            x    C       429        5.459031    9.192992    5.995791   x
            x    C       430       21.601811    9.193218    5.986736   x
            x    C       431       29.668682    9.193086    5.978259   x
            x    C       432       37.745998    9.192908    5.996316   x
            x    C       433       45.810401    9.192768    5.975206   x
            x    C       434       10.838717    9.193256    5.999200   x
            x    C       435       47.153940   11.527642    5.989287   x
            x    C       436       55.222080   11.517868    5.985303   x
            x    C       437       63.298207   11.531024    5.987756   x
            x    C       438       31.011035   11.530160    5.990886   x
            x    C       439       39.084344   11.519257    5.988289   x
            x    C       440       49.855867   11.527597    5.978605   x
            x    C       441       57.925852   11.519464    5.975352   x
            x    C       442        1.429189   11.529704    5.978284   x
            x    C       443       33.712330   11.530871    5.978026   x
            x    C       444       41.788285   11.517769    5.976363   x
            x    C       445        6.797483   11.516799    5.984594   x
            x    C       446       22.938884   11.516306    5.980767   x
            x    C       447       25.642925   11.517264    5.971543   x
            x    C       448        9.501350   11.516167    5.970324   x
            x    C       449       45.816717   13.850913    5.996211   x
            x    C       450       43.130759   13.853192    5.987749   x
            x    C       451       51.193368   13.851022    6.006837   x
            x    C       452       59.271943   13.855727    5.987620   x
            x    C       453       35.050557   13.854713    6.007267   x
            x    C       454       53.879480   13.853246    5.973473   x
            x    C       455       61.959489   13.854783    5.995099   x
            x    C       456       29.676145   13.853995    5.995856   x
            x    C       457       37.738224   13.855655    5.976410   x
            x    C       458        2.764353   13.853654    6.007150   x
            x    C       459       26.989317   13.853809    5.984260   x
            x    C       460        5.451209   13.853474    5.974337   x
            x    C       461       10.845792   13.851544    5.980935   x
            x    C       462       47.153549   16.175025    5.988366   x
            x    C       463       55.225687   16.187983    5.987166   x
            x    C       464       41.784635   16.187909    5.977958   x
            x    C       465       49.856817   16.175249    5.977828   x
            x    C       466       39.082559   16.190044    5.990066   x
            x    C       467       63.296640   16.177923    5.986609   x
            x    C       468       31.012370   16.177622    5.988644   x
            x    C       469       57.927706   16.189885    5.977671   x
            x    C       470       33.713716   16.177850    5.975621   x
            x    C       471        6.795456   16.190040    5.987611   x
            x    C       472        1.427919   16.177769    5.977024   x
            x    C       473       25.644661   16.190062    5.974200   x
            x    C       474       22.940632   16.188236    5.984153   x
            x    C       475        9.499751   16.188145    5.973853   x
            x    C       476       51.200369   18.513596    5.988422   x
            x    C       477       45.809724   18.513661    5.975669   x
            x    C       478       43.121851   18.511983    6.007900   x
            x    C       479       53.888403   18.511869    5.995707   x
            x    C       480       35.058067   18.512660    5.986958   x
            x    C       481       59.265676   18.512216    6.007202   x
            x    C       482       37.744694   18.511996    5.996260   x
            x    C       483       61.952569   18.512888    5.975303   x
            x    C       484       29.668795   18.513259    5.977751   x
            x    C       485        2.771697   18.513440    5.990132   x
            x    C       486       26.982030   18.513962    6.006185   x
            x    C       487        5.458294   18.514002    5.997010   x
            x    C       488       10.837167   18.513490    6.005408   x
            x    C       489       18.915545   18.512734    5.981031   x
            x    C       490       21.603528   18.513467    5.992524   x
            x    C       491       13.525279   18.512859    5.971335   x
            x    C       492       47.153938   20.851223    5.986547   x
            x    C       493       49.855758   20.850764    5.975863   x
            x    C       494       55.224636   20.837060    5.986042   x
            x    C       495       41.785779   20.837199    5.976173   x
            x    C       496       31.012412   20.847813    5.990246   x
            x    C       497       39.081557   20.835805    5.989140   x
            x    C       498       63.296997   20.848168    5.989767   x
            x    C       499       33.713554   20.847982    5.977764   x
            x    C       500       57.928696   20.836127    5.977361   x
            x    C       501        1.427654   20.847878    5.979808   x
            x    C       502        6.796659   20.836060    5.989573   x
            x    C       503       22.940946   20.837711    5.987166   x
            x    C       504       25.643677   20.835981    5.975366   x
            x    C       505       14.868831   20.850601    5.986974   x
            x    C       506        9.499482   20.837872    5.977652   x
            x    C       507       17.571487   20.850489    5.974509   x
            x    C       508       51.192568   23.173906    5.999671   x
            x    C       509       45.817745   23.174128    5.988729   x
            x    C       510       43.131800   23.173898    5.983503   x
            x    C       511       59.273538   23.172300    5.989851   x
            x    C       512       37.736767   23.172144    5.976885   x
            x    C       513       53.878886   23.174186    5.970072   x
            x    C       514       26.988441   23.170380    5.986184   x
            x    C       515       35.049435   23.172231    6.006856   x
            x    C       516        2.764587   23.171090    6.009995   x
            x    C       517       29.675787   23.171208    5.996315   x
            x    C       518       61.960624   23.171795    5.997037   x
            x    C       519       10.845569   23.172764    5.990187   x
            x    C       520       18.908664   23.174319    6.006432   x
            x    C       521        5.451906   23.170296    5.978341   x
            x    C       522       21.595080   23.172920    5.977158   x
            x    C       523       13.531719   23.174203    5.996551   x
            x    C       524       55.223292   25.510009    5.983179   x
            x    C       525       31.013777   25.494848    5.987652   x
            x    C       526       39.083398   25.508823    5.987543   x
            x    C       527       63.295449   25.495896    5.988581   x
            x    C       528        6.798553   25.506412    5.991420   x
            x    C       529       25.641590   25.506437    5.976628   x
            x    C       530       33.715004   25.496391    5.975046   x
            x    C       531       41.787348   25.509573    5.972920   x
            x    C       532       57.927055   25.508627    5.976574   x
            x    C       533        1.426686   25.495029    5.978650   x
            x    C       534       22.937894   25.508373    5.989478   x
            x    C       535       14.869048   25.497708    5.988814   x
            x    C       536        9.502472   25.508134    5.980343   x
            x    C       537       17.571339   25.497967    5.976526   x
            x    C       538       18.915205   27.833132    5.987493   x
            x    C       539       26.980373   27.832766    6.005257   x
            x    C       540       35.057903   27.832927    5.985178   x
            x    C       541       59.264906   27.833065    6.006307   x
            x    C       542        2.770143   27.833062    5.990489   x
            x    C       543       10.839217   27.833107    6.009361   x
            x    C       544       21.601600   27.833148    5.996118   x
            x    C       545       29.670573   27.832748    5.976325   x
            x    C       546       37.745022   27.832904    5.994130   x
            x    C       547       53.886493   27.833177    5.984969   x
            x    C       548       61.952338   27.833209    5.975472   x
            x    C       549        5.459982   27.832669    5.997370   x
            x    C       550       13.525669   27.832948    5.977945   x
            x    C       551       43.123754   27.832949    5.996470   x
            x    C       552       14.869237   30.167772    5.991090   x
            x    C       553       22.937692   30.157706    5.986718   x
            x    C       554       31.013837   30.170817    5.988981   x
            x    C       555       63.295456   30.170058    5.989500   x
            x    C       556        6.798558   30.159007    5.988237   x
            x    C       557       17.571165   30.167668    5.978839   x
            x    C       558       25.641580   30.159197    5.973760   x
            x    C       559       33.715057   30.169459    5.976281   x
            x    C       560        1.426354   30.170792    5.979796   x
            x    C       561        9.502624   30.157797    5.977398   x
            x    C       562       39.083056   30.157008    5.983891   x
            x    C       563       55.223575   30.155804    5.978317   x
            x    C       564       57.927101   30.157099    5.972787   x
            x    C       565       41.786908   30.156058    5.968223   x
            x    C       566       13.531473   32.490907    5.998579   x
            x    C       567       10.845341   32.493114    5.990120   x
            x    C       568       18.909088   32.490751    6.008546   x
            x    C       569       26.988099   32.495566    5.985194   x
            x    C       570        2.764617   32.494647    6.009302   x
            x    C       571       21.595319   32.493053    5.977453   x
            x    C       572       29.675588   32.494688    5.995696   x
            x    C       573       61.960102   32.493774    5.996407   x
            x    C       574        5.452240   32.495664    5.976930   x
            x    C       575       35.050297   32.493397    6.005882   x
            x    C       576       59.273277   32.493439    5.987292   x
            x    C       577       37.737195   32.493597    5.974586   x
            x    C       578       43.131577   32.491518    5.978752   x
            x    C       579       14.868425   34.814971    5.990950   x
            x    C       580       22.941257   34.827851    5.989858   x
            x    C       581        9.499133   34.827625    5.979877   x
            x    C       582       17.571907   34.814908    5.978607   x
            x    C       583        6.796841   34.830023    5.990927   x
            x    C       584       31.012492   34.818008    5.988169   x
            x    C       585       63.296439   34.817536    5.988203   x
            x    C       586       25.643475   34.829750    5.976956   x
            x    C       587        1.427623   34.817872    5.978285   x
            x    C       588       39.081244   34.829721    5.987731   x
            x    C       589       33.714062   34.817700    5.975787   x
            x    C       590       57.928867   34.829519    5.975782   x
            x    C       591       55.224806   34.828167    5.982576   x
            x    C       592       41.785220   34.827786    5.972943   x
            x    C       593       18.915927   37.153357    5.988186   x
            x    C       594       13.524570   37.153489    5.978494   x
            x    C       595       10.836552   37.151738    6.010036   x
            x    C       596       21.603930   37.151891    5.997144   x
            x    C       597        2.771654   37.152553    5.990342   x
            x    C       598       26.981717   37.151882    6.007015   x
            x    C       599        5.458427   37.152002    5.997629   x
            x    C       600       29.668654   37.152693    5.977883   x
            x    C       601       61.952677   37.153317    5.975567   x
            x    C       602       35.057820   37.153513    5.986846   x
            x    C       603       59.266090   37.153629    6.006524   x
            x    C       604       37.744175   37.153387    5.995741   x
            x    C       605       43.122224   37.152955    6.003359   x
            x    C       606       51.200009   37.152533    5.981522   x
            x    C       607       53.887996   37.153470    5.990934   x
            x    C       608       45.810196   37.152743    5.968494   x
            xxxxxxxxxxxxxxxxxxxxxxxxxxxxxxxxxxxxxxxxxxxxxxxxxxxxxxxxxxxx
 

LBFGS: continuation file name is "graphite.continuation"
 LBFGS: Restarting previous  geometry optimization.
 avg_mass=  20434.982871146687
 Enthalpy contributions:
                  total energy=  -3.36353806E+003 Eh
        diagonal pressure term=   0.00000000E+000 Eh
    off-diagonal pressure term=   0.00000000E+000 Eh
 LBFGS: finished iteration   0  with enthalpy= -3.363538061798E+003 Eh
  
 +-----------+-----------------+-----------------+------------+-----+ <-- LBFGS
 | Parameter |      value      |    tolerance    |    units   | OK? | <-- LBFGS
 +-----------+-----------------+-----------------+------------+-----+ <-- LBFGS
 |  dE/ion   |   0.000000E+000 |   1.000000E-006 |         Eh | No  | <-- LBFGS
 |  |F|max   |   3.997502E-003 |   2.000000E-003 |    Eh/Bohr | No  | <-- LBFGS
 |  |dR|max  |   0.000000E+000 |   5.000000E-003 |       Bohr | No  | <-- LBFGS
 +-----------+-----------------+-----------------+------------+-----+ <-- LBFGS
  

================================================================================
 Starting LBFGS iteration    1 ...
================================================================================
 Writing xyz coordinates to file "graphite.xyz" ... done

 Writing continuation file "graphite.continuation" ...done
 Backing up NGWFs to file "graphite.tightbox_ngwfs.bfgs_back" ... done
 Backing up Hamiltonian to file "graphite.ham.bfgs_back" ... done
  
 +------------+-------------+-------------+-----------------+ <-- min LBFGS
 |    Step    |   lambda    |   F.delta   |    enthalpy     | <-- min LBFGS
 +------------+-------------+-------------+-----------------+ <-- min LBFGS
 |  previous  |    0.000000 |    0.004045 |    -3363.538062 | <-- min LBFGS
 +------------+-------------+-------------+-----------------+ <-- min LBFGS
  

--------------------------------------------------------------------------------
 LBFGS: starting iteration   1 with trial guess (lambda=    1.000000)
--------------------------------------------------------------------------------
 
                           -------------------------------
                                     Cell Contents
                           -------------------------------
 
            xxxxxxxxxxxxxxxxxxxxxxxxxxxxxxxxxxxxxxxxxxxxxxxxxxxxxxxxxxxx
            x  Element    Atom      Absolute co-ordinates of atoms     x
            x            Number        x           y           z       x
            x----------------------------------------------------------x
            x    Li        1        0.047259   37.154083   16.259932   x
            x    Li        2        0.049151   27.833548   16.261542   x
            x    Li        3        0.043462   18.511668   16.259742   x
            x    Li        4        0.040826    9.192655   16.259420   x
            x    Li        5        0.048963   32.494303   16.315033   x
            x    Li        6        0.046330   23.172106   16.315547   x
            x    Li        7        0.042653   13.855193   16.313530   x
            x    Li        8        0.044192    4.533914   16.313894   x
            x    Li        9        8.136369   37.153624   16.315155   x
            x    Li       10        8.138457   27.836011   16.314517   x
            x    Li       11        8.141014   18.510084   16.312660   x
            x    Li       12        8.147738    9.195716   16.308023   x
            x    Li       13        8.137648   32.491217   16.259497   x
            x    Li       14        8.137743   23.173410   16.261637   x
            x    Li       15        8.147641   13.852212   16.252277   x
            x    Li       16        8.140819    4.535379   16.258110   x
            x    Li       17       16.237939    9.197226   16.237907   x
            x    Li       18       16.237168   18.504308   16.252964   x
            x    Li       19       16.236306   27.833348   16.258300   x
            x    Li       20       16.236890   37.157745   16.261710   x
            x    Li       21       16.235824   32.490788   16.313873   x
            x    Li       22       16.236142   23.171268   16.312517   x
            x    Li       23       16.236944   13.847164   16.292217   x
            x    Li       24       16.236326    4.546677   16.303774   x
            x    Li       25       24.330126   32.491283   16.258967   x
            x    Li       26       24.330075   23.173385   16.260803   x
            x    Li       27       24.315063   13.852480   16.253745   x
            x    Li       28       24.324107    4.535163   16.259378   x
            x    Li       29       24.327688   37.152940   16.314944   x
            x    Li       30       24.327755   27.835754   16.313636   x
            x    Li       31       24.322455   18.511011   16.312256   x
            x    Li       32       24.314698    9.195377   16.308730   x
            x    Li       33       32.406266   37.152875   16.262933   x
            x    Li       34       32.404368   27.833534   16.262075   x
            x    Li       35       32.411584   18.513169   16.262831   x
            x    Li       36       32.413520    9.192434   16.264179   x
            x    Li       37       32.403425   32.492938   16.316718   x
            x    Li       38       32.406163   23.173403   16.317136   x
            x    Li       39       32.411504   13.856275   16.318443   x
            x    Li       40       32.409231    4.532939   16.318462   x
            x    Li       41       40.471896   32.489611   16.262100   x
            x    Li       42       40.458048   23.176120   16.267641   x
            x    Li       43       40.455137   13.853664   16.267342   x
            x    Li       44       40.454997    4.533385   16.269210   x
            x    Li       45       40.463332   37.153125   16.321320   x
            x    Li       46       40.471911   27.836795   16.314864   x
            x    Li       47       40.457472   18.511015   16.323394   x
            x    Li       48       40.459222    9.195154   16.323930   x
            x    Li       49       48.479131   37.146778   16.261123   x
            x    Li       50       48.479500   27.838075   16.244257   x
            x    Li       51       48.479283   18.515109   16.269797   x
            x    Li       52       48.478779    9.192540   16.266873   x
            x    Li       53       48.480393   32.484026   16.299624   x
            x    Li       54       48.480887   23.187256   16.311716   x
            x    Li       55       48.479825   13.853684   16.321363   x
            x    Li       56       48.479802    4.531251   16.319707   x
            x    Li       57       56.517726   32.491239   16.256679   x
            x    Li       58       56.527251   23.174812   16.262276   x
            x    Li       59       56.533336   13.852567   16.261045   x
            x    Li       60       56.533214    4.534035   16.262881   x
            x    Li       61       56.531601   37.152482   16.315035   x
            x    Li       62       56.521854   27.836437   16.310216   x
            x    Li       63       56.536685   18.511502   16.317731   x
            x    Li       64       56.536168    9.194814   16.316513   x
            x    C        65       18.927906    9.198611   12.834498   x
            x    C        66       13.519616    9.198688   12.836626   x
            x    C        67       14.864040   11.535518   12.838601   x
            x    C        68       17.583591   11.534980   12.833506   x
            x    C        69       51.205312   27.838493   12.833349   x
            x    C        70       45.802650   27.838235   12.829013   x
            x    C        71       47.144148   30.174911   12.833595   x
            x    C        72       49.863776   30.175169   12.834833   x
            x    C        73       14.863967    6.861532   12.848503   x
            x    C        74       17.583852    6.861887   12.843517   x
            x    C        75       21.593436   13.858434   12.841936   x
            x    C        76       18.925933   13.857510   12.809899   x
            x    C        77       13.521422   13.857763   12.813046   x
            x    C        78       14.863980   16.179891   12.852288   x
            x    C        79       17.583721   16.179936   12.847126   x
            x    C        80       47.144003   25.501686   12.843719   x
            x    C        81       49.863548   25.501889   12.844637   x
            x    C        82       53.868578   32.498079   12.837378   x
            x    C        83       51.203762   32.497622   12.813013   x
            x    C        84       45.804797   32.497588   12.805876   x
            x    C        85       47.143523   34.820406   12.848549   x
            x    C        86       49.863899   34.820275   12.849858   x
            x    C        87       14.864164    2.219759   12.858578   x
            x    C        88       17.583764    2.219962   12.853586   x
            x    C        89       22.938299    2.201544   12.865181   x
            x    C        90        9.508547    2.201526   12.863163   x
            x    C        91       63.283815    2.216084   12.855949   x
            x    C        92        6.787368    2.200508   12.863944   x
            x    C        93       31.011966    2.215804   12.861866   x
            x    C        94        1.431161    2.215919   12.858467   x
            x    C        95       25.659444    2.201041   12.859162   x
            x    C        96       33.729790    2.215768   12.853689   x
            x    C        97       39.077615    2.200583   12.865941   x
            x    C        98       55.211725    2.201568   12.858118   x
            x    C        99       57.932090    2.201035   12.862697   x
            x    C       100       47.144086    2.217935   12.852279   x
            x    C       101       41.797971    2.201561   12.857950   x
            x    C       102       49.863311    2.217975   12.853489   x
            x    C       103       18.926354    4.541059   12.818726   x
            x    C       104       13.521138    4.540563   12.821509   x
            x    C       105       10.853981    4.540133   12.850354   x
            x    C       106       27.002956    4.538958   12.850223   x
            x    C       107        5.442703    4.538785   12.851487   x
            x    C       108       21.592867    4.540058   12.848228   x
            x    C       109       59.275931    4.537474   12.851739   x
            x    C       110        2.774150    4.538136   12.831579   x
            x    C       111       35.069627    4.537192   12.822350   x
            x    C       112       61.942893    4.537574   12.820299   x
            x    C       113       29.670183    4.537865   12.830777   x
            x    C       114       43.140229    4.539593   12.848376   x
            x    C       115       51.203793    4.540354   12.827344   x
            x    C       116       37.735229    4.537127   12.851312   x
            x    C       117       53.868617    4.539405   12.846083   x
            x    C       118       45.804249    4.540147   12.820142   x
            x    C       119       22.935966    6.878085   12.854875   x
            x    C       120       63.284545    6.859850   12.860258   x
            x    C       121        6.789015    6.877291   12.857021   x
            x    C       122       31.009667    6.860784   12.868134   x
            x    C       123       39.079152    6.875210   12.860377   x
            x    C       124       57.930351    6.875218   12.856860   x
            x    C       125        1.432934    6.860975   12.863777   x
            x    C       126        9.510111    6.878155   12.852413   x
            x    C       127       25.657297    6.877391   12.852996   x
            x    C       128       33.729064    6.859837   12.858723   x
[...]
 C   188 -- C   189       -0.05      0.00      5.40435
 C    99 -- C   129       -0.05     -0.00      5.40437
 C    86 -- C   100       -0.05      0.00      5.40440
 C   174 -- C   205       -0.05      0.00      5.40440
 C   122 -- C   155       -0.05      0.00      5.40444
 C    85 -- C   102       -0.05      0.00      5.40445
 C   180 -- C   211       -0.05      0.00      5.40451
 C   206 -- C   244       -0.05     -0.00      5.40458
 C   148 -- C   181       -0.05     -0.00      5.40461
 C   128 -- C   150       -0.05      0.00      5.40462
 C   237 -- C   271       -0.05      0.00      5.40464
 C   276 -- C   303       -0.05     -0.00      5.40465
 C   242 -- C   266       -0.05      0.00      5.40469
 C   222 -- C   224       -0.05     -0.00      5.40472
 C    93 -- C   301       -0.05      0.00      5.40477
 C   212 -- C   236       -0.05     -0.00      5.40491
 C   153 -- C   175       -0.05     -0.00      5.40493
 C   216 -- C   246       -0.05     -0.00      5.40496
 C    98 -- C   124       -0.05     -0.00      5.40497
 C   289 -- C   290       -0.05     -0.00      5.40504
 C    67 -- C    74       -0.05      0.00      5.40505
 C    68 -- C    73       -0.05      0.00      5.40514
 C    89 -- C   127       -0.05     -0.00      5.40515
 C   265 -- C   298       -0.05     -0.00      5.40519
 C   275 -- C   302       -0.05     -0.00      5.40520
 C   159 -- C   186       -0.05     -0.00      5.40521
 C   182 -- C   208       -0.05      0.00      5.40524
 C   184 -- C   210       -0.05      0.00      5.40525
 C   239 -- C   272       -0.05      0.00      5.40527
 C    94 -- C   297       -0.05      0.00      5.40529
 C   125 -- C   149       -0.05      0.00      5.40529
 C    96 -- C   296       -0.05      0.00      5.40530
 C   133 -- C   145       -0.05      0.00      5.40532
 C   214 -- C   248       -0.05     -0.00      5.40533
 C   245 -- C   267       -0.05      0.00      5.40538
 C   120 -- C   154       -0.05      0.00      5.40539
 C   270 -- C   292       -0.05     -0.00      5.40542
 C   215 -- C   241       -0.05     -0.00      5.40551
 C    95 -- C   119       -0.05     -0.00      5.40553
 C    90 -- C   121       -0.05     -0.00      5.40554
 C   247 -- C   269       -0.05      0.00      5.40557
 C   249 -- C   264       -0.05      0.00      5.40559
 C   273 -- C   295       -0.05     -0.00      5.40572
 C   157 -- C   187       -0.05     -0.00      5.40575
 C   158 -- C   185       -0.05     -0.00      5.40577
 C   179 -- C   213       -0.05      0.00      5.40579
 C   218 -- C   240       -0.05     -0.00      5.40587
 C    88 -- C   291       -0.05      0.00      5.40589
 C    87 -- C   294       -0.05      0.00      5.40592
 C    79 -- C   217       -0.05      0.00      5.40597
 C    92 -- C   126       -0.05     -0.00      5.40599
 C    91 -- C   299       -0.05      0.00      5.40599
 C   268 -- C   293       -0.05     -0.00      5.40603
 C    78 -- C   219       -0.05      0.00      5.40612
 C   160 -- C   183       -0.05     -0.00      5.40617
 C   192 -- C   196       -0.05      0.00      5.40853
 C   109 -- C   117       -0.05     -0.00      5.40856
 C   312 -- C   314       -0.05      0.00      5.40866
 C   137 -- C   143       -0.05      0.00      5.40904
 C   164 -- C   166       -0.05     -0.00      5.40905
 C   252 -- C   257       -0.05      0.00      5.40908
 C   223 -- C   225       -0.05     -0.00      5.40930
 C    82 -- C   288       -0.05     -0.00      5.40947
 C   226 -- C   234       -0.05     -0.00      5.41235
 C   281 -- C   283       -0.05     -0.00      5.41273
 C   309 -- C   313       -0.05      0.00      5.41305
 C   195 -- C   197       -0.05      0.00      5.41320
 C   106 -- C   108       -0.05     -0.00      5.41330
 C    75 -- C   171       -0.05     -0.00      5.41342
 C   254 -- C   260       -0.05      0.00      5.41347
 C   135 -- C   140       -0.05      0.00      5.41350
 C   201 -- C   203       -0.05      0.00      5.41481
 C   305 -- C   306       -0.05      0.00      5.41493
 C    65 -- C    66       -0.05      0.00      5.41521
 C   231 -- C   233       -0.05     -0.00      5.41530
 C   279 -- C   286       -0.05     -0.00      5.41535
 C   250 -- C   262       -0.05      0.00      5.41576
 C   105 -- C   107       -0.05     -0.00      5.41578
 C   172 -- C   173       -0.05     -0.00      5.41597
=============================================================

(P)DSYGVX in subroutine dense_eigensolve returned info=    2
 ifail= 2*0
 iclustr= 1,  58
 gap= 2.E-5,  3.E-5
(P)DSYGVX in subroutine dense_eigensolve returned info=    2
 ifail= 2*0
 iclustr= 1,  58
 gap= 2.E-5,  3.E-5

============== Orbital energy and occupancy information for spin 1 =============

      Total number of orbitals:    2528
        Occupancy sum (kernel):    1160.767145270
   Occupancy sum (eigenvalues):    1160.767145270
                 HOMO-LUMO gap:       0.000002030 Eh
                 Mid-gap level:      -0.159838014 Eh

                        Orbital | Energy (Eh) | Occupancy
                            1    -1.946834210   1.0000000
                        .......   ...........   .........
                         1152    -0.164738791   0.8328474
                         1153    -0.163015853   0.7593038
                         1154    -0.162854631   0.7511004
                         1155    -0.162714506   0.7437171
                         1156    -0.162678836   0.7419111
                         1157    -0.161958002   0.7027159
                         1158    -0.161932992   0.7012949
                         1159    -0.159851732   0.5701978
                         1160    -0.159848746   0.5701360
                         1161    -0.159839029   0.5694748
                        ....... -- gap at 0K -- .........
                         1162    -0.159836999   0.5692386
                         1163    -0.158880308   0.5045786
                         1164    -0.158877114   0.5045171
                         1165    -0.152969071   0.1685081
                         1166    -0.152954643   0.1679434
                         1167    -0.152878891   0.1651419
                         1168    -0.152864731   0.1646044
                         1169    -0.152100927   0.1377755
                         1170    -0.152098443   0.1376527
                         1171    -0.151320942   0.1156928
                        .......   ...........   .........
                         2528     0.713868501   0.0000000

================================================================================

============== Orbital energy and occupancy information for spin 2 =============

      Total number of orbitals:    2528
        Occupancy sum (kernel):    1160.767144363
   Occupancy sum (eigenvalues):    1160.767144363
                 HOMO-LUMO gap:       0.000002030 Eh
                 Mid-gap level:      -0.159838014 Eh

                        Orbital | Energy (Eh) | Occupancy
                            1    -1.946834232   1.0000000
                        .......   ...........   .........
                         1152    -0.164738792   0.8328475
                         1153    -0.163015820   0.7593022
                         1154    -0.162854628   0.7511003
                         1155    -0.162714531   0.7437183
                         1156    -0.162678837   0.7419112
                         1157    -0.161958119   0.7027217
                         1158    -0.161932872   0.7012889
                         1159    -0.159851732   0.5701978
                         1160    -0.159848745   0.5701360
                         1161    -0.159839029   0.5694748
                        ....... -- gap at 0K -- .........
                         1162    -0.159836999   0.5692386
                         1163    -0.158880309   0.5045786
                         1164    -0.158877114   0.5045170
                         1165    -0.152969071   0.1685081
                         1166    -0.152954643   0.1679434
                         1167    -0.152878890   0.1651419
                         1168    -0.152864731   0.1646044
                         1169    -0.152100924   0.1377754
                         1170    -0.152098446   0.1376528
                         1171    -0.151321004   0.1156942
                        .......   ...........   .........
                         2528     0.713868500   0.0000000

================================================================================

===================== Writing canonical molecular orbitals =====================
    Spin 1
| Orbital  Energy (eV)  Norm     |
| HOMO-5   -4.42671636  1.000000 | 
| HOMO-4   -4.40710148  1.000000 | 
| HOMO-3   -4.40642093  1.000000 | 
| HOMO-2   -4.34978696  1.000000 | 
| HOMO-1   -4.34970570  1.000000 | 
| HOMO     -4.34944129  1.000000 | 
| LUMO     -4.34938605  1.000000 | 
| LUMO+1   -4.32335317  1.000000 | 
| LUMO+2   -4.32326627  1.000000 | 
| LUMO+3   -4.16250021  1.000000 | 
| LUMO+4   -4.16210761  1.000000 | 
| LUMO+5   -4.16004629  1.000000 | 
================================================================================

===================== Writing canonical molecular orbitals =====================
    Spin 2
| Orbital  Energy (eV)  Norm     |
| HOMO-5   -4.42671641  1.000000 | 
| HOMO-4   -4.40710467  1.000000 | 
| HOMO-3   -4.40641766  1.000000 | 
| HOMO-2   -4.34978695  1.000000 | 
| HOMO-1   -4.34970569  1.000000 | 
| HOMO     -4.34944129  1.000000 | 
| LUMO     -4.34938606  1.000000 | 
| LUMO+1   -4.32335319  1.000000 | 
| LUMO+2   -4.32326626  1.000000 | 
| LUMO+3   -4.16250023  1.000000 | 
| LUMO+4   -4.16210761  1.000000 | 
| LUMO+5   -4.16004629  1.000000 | 
================================================================================
 
=============== Density of States (DOS) calculation for UP spin ================
Writing "graphite_UP_DOS.txt" ... done
================================================================================
 
============== Density of States (DOS) calculation for DOWN spin ===============
Writing "graphite_DN_DOS.txt" ... done
================================================================================
 
Writing bands to file "graphite.val_bands" ... done

IS: Calculating electrolyte contribution to the atomic forces ...
================================================================================
 
***********************************************************
********** Summary of Forces (values in Eh/a) *************
*                                                         *
* ---------------------- Minimum ------------------------ *
* Atom:       367, |F|min =    0.00014832                 *
* Components:     Fx|min       Fy|min       Fz|min        *
*               0.00005381  -0.00012972  -0.00004772      *
*                                                         *
* ---------------------- Maximum ------------------------ *
* Atom:        17, |F|max =    0.00134034                 *
* Components:     Fx|max       Fy|max       Fz|max        *
*               0.00003992   0.00034771   0.00129384      *
*                                                         *
* ---------------- Root Mean Square Force --------------- *
*                  |F|rms =    0.00067240                 *
* Components:     Fx|rms       Fy|rms       Fz|rms        *
*               0.00027444   0.00040824   0.00045841      *
***********************************************************
 

                                                      hartree           kcal/mol
IS: NB: Energy of pure electrolyte:         -0.08502474870975         -53.353834

------------------------------ TIMING INFORMATION ------------------------------
AVERAGE TIME:   15562.293s on    128 proc(s)                                    
TOTAL TIME:     15562.298s on    128 proc(s)                                    
================= AVERAGE TIMINGS FROM ALL PROCS (CUMULATIVE) ==================
|| TAG                                    #calls    cpu time   %total  Gflops ||
|| linalg_invert_sym_matrix             :     4        0.00s   0.000%  ------ || (1 procs only)
|| density_fftbox_interp_mult_imbal     : 22050        0.00s   0.000%  ------ ||
|| onetep.F90 final imbalance           :     1        0.01s   0.000%  ------ ||
|| sparse_set_to_garbage                :   272        0.02s   0.000%  ------ ||
|| onetep.F90 main loop imbalance       :     1        0.03s   0.000%  ------ ||
|| ewald_calculate_forces_realspace     :     8        0.04s   0.000%  ------ ||
|| basis_extract_function_from_box      :  1817        0.13s   0.001%  ------ ||
|| vdwcorrection_calculate_energy       :     8        0.14s   0.001%  ------ ||
|| pseudopotentials_core_density        :     8        0.16s   0.001%  ------ ||
|| pseudopotentials_local_on_grid       :     8        0.16s   0.001%  ------ ||
|| vdwcorrection_calculate_forces       :     8        0.22s   0.001%  ------ ||
|| parallel_prepare_fd_halos_alloc      : 45351        0.25s   0.002%  ------ ||
|| sparse_spam3toblacs_real_fast_imbal  :  1976        0.37s   0.002%  ------ ||
|| pseudopotentials_nonlocal_mat        :    38        0.40s   0.003%  ------ ||
|| parallel_prepare_fd_halos_request    : 45351        0.42s   0.003%  ------ ||
|| restart_hamiltonian_read             :     8        0.62s   0.004%  ------ ||
|| sparse_blacstospam3_real_fast_imbal  :  1940        0.76s   0.005%  ------ ||
|| pseudo_make_structure_factor         :     8        1.22s   0.008%  ------ ||
|| restart_hamiltonian_write            :    21        1.39s   0.009%  ------ ||
|| smeared_ion_generate_potential_PBC   :     8        1.42s   0.009%  ------ ||
|| sparse_spam3toblacs_real_fast_B2     : 252.9k       1.95s   0.013%  ------ ||
|| parallel_prepare_fd_halos_satisfy    : 45351        2.02s   0.013%  ------ ||
|| energy_and_force_init_cell           :     1        2.55s   0.016%  ------ ||
|| sparse_init                          :     8        3.64s   0.023%  ------ ||
|| pseudo_local_calculate_forces        :     8        4.60s   0.030%  ------ ||
|| eigenstates_calculate                :     1        4.90s   0.031%  ------ ||
|| ngwf_gradient_coeffs                 :    21        5.19s   0.033%  ------ ||
|| integrals_grad_spam3                 :     8        5.51s   0.035%  ------ ||
|| nonsc_forces_ngwfs_calc              :     8        5.67s   0.036%  ------ ||
|| density_init_guess_real              :     8        5.69s   0.037%  ------ ||
|| ewald_calculate_energy               :     8        6.02s   0.039%  ------ ||
|| pseudo_nlcc_calculate_forces         :     8        6.15s   0.040%  ------ ||
|| restart_kernel_write                 :    29        6.25s   0.040%  ------ ||
|| projectors_func_grad_ovlp_box_spam3  :    24        8.74s   0.056%  ------ ||
|| pseudo_nl_calculate_forces           :     8       10.00s   0.064%  ------ ||
|| sparse_embed_hotelling_invert_embed  :    38       10.58s   0.068%  ------ ||
|| fourier_filter_cell                  :   394       10.79s   0.069% 203.471 ||
|| projectors_func_ovlp_box_spam3       :    38       13.05s   0.084%  ------ ||
|| projectors_init_fftbox_recip         :   146       14.15s   0.091%  ------ ||
|| restart_ngwfs_tightbox_input         :     8       14.36s   0.092%  ------ ||
|| boltzmann_init_steric_pot            :     8       15.87s   0.102%  ------ ||
|| parallel_prepare_fd_halos_comms_imbal: 45351       17.15s   0.110%  ------ ||
|| ewald_calculate_forces_recipspace    :     8       17.60s   0.113%  ------ ||
|| ewald_calculate_forces               :     8       17.92s   0.115%  ------ ||
|| sparse_trace                         :  7312       18.14s   0.117%  ------ ||
|| parallel_prepare_fd_halos_clear      : 45351       18.23s   0.117%  ------ ||
|| fourier_apply_box_pair               :  2130       18.96s   0.122%  1.814k ||
|| basis_copy_function_to_box           : 29348       25.72s   0.165%  ------ ||
|| parallel_prepare_fd_halos_comms_wait : 45351       30.36s   0.195%  ------ ||
|| function_ops_brappd_ketppd_spam3     :    68       30.97s   0.199%  ------ ||
|| properties_calculate                 :     1       32.04s   0.206%  ------ ||
|| integrals_kinetic_spam3              :    38       45.16s   0.290%  ------ ||
|| fourier_interpolate_cell             :  1050       52.52s   0.337% 111.394 ||
|| projectors_gradient_batch            :    84       68.32s   0.439%  ------ ||
|| parallel_prepare_fd_halos            : 45351       68.70s   0.441%  ------ ||
|| sparse_product                       :  4269       71.74s   0.461%  ------ ||
|| fourier_apply_cell_backward          :  4336       73.00s   0.469% 167.035 ||
|| sparse_spam3toblacs_real_fast_B1     : 252.9k      82.79s   0.532%  ------ ||
|| sparse_spam3toblacs_real_fast        :  1976       89.23s   0.573%  ------ ||
|| basis_dot_function_with_box          : 5.492M     102.00s   0.655%  ------ ||
|| cell_grid_extract_box_real           :  8626      112.39s   0.722%  ------ ||
|| restart_ngwfs_tightbox_output        :    14      150.17s   0.965%  ------ ||
|| xc_energy_potential                  :   533      157.10s   1.009%  ------ ||
|| sparse_blacstospam3_real_fast        :  1940      164.70s   1.058%  ------ ||
|| fourier_apply_cell_forward           :  4304      167.39s   1.076%  72.309 ||
|| finite_difference_derivative         : 45351      204.86s   1.316%  ------ ||
|| cell_grid_deposit_box_real           : 22634      293.82s   1.888%  ------ ||
|| hamiltonian_energy_components        :     8      302.70s   1.945%  ------ ||
|| ngwf_gradient_build_batch            :    84      303.40s   1.950%  ------ ||
|| dense_eigensolve                     :   942      332.20s   2.135%  ------ ||
|| basis_add_function_to_box            : 17.83M     339.22s   2.180%  ------ ||
|| integrals_locpot_mat_els_batch       :   704      386.55s   2.484%  ------ ||
|| edft_diag_ngwf_ham                   :   940      415.24s   2.668%  ------ ||
|| implicit_solvent_boltzmann_forces    :     8      427.19s   2.745%  ------ ||
|| ngwf_gradient_batch                  :    84      478.62s   3.076%  ------ ||
|| ngwf_gradient_lnv                    :    21      497.22s   3.195%  ------ ||
|| edft_apply_smearing_operator         :   470      650.11s   4.177%  ------ ||
|| smeared_ion_force_correction         :    16      844.80s   5.429%  ------ ||
|| implicit_solvent_soft_sphere_forces  :     8      885.55s   5.690%  ------ ||
|| density_batch_row_sums               :  2100      906.82s   5.827%  ------ ||
|| density_fftbox_deposit_to_cell       : 22050     1135.03s   7.293%  ------ ||
|| potential_apply_to_ngwf_batch        :   704     1459.15s   9.376%  ------ ||
|| integrals_locpot_dbl_grid            :   352     1848.51s  11.878%  ------ ||
|| fourier_apply_box                    : 62998     2107.29s  13.541%  2.339k ||
|| dl_mg_solver_calls                   :   525     2138.95s  13.744%  ------ ||
|| multigrid_calculate_hartree          :   525     2192.79s  14.090%  ------ ||
|| forces_calculate                     :     8     2292.38s  14.730%  ------ ||
|| density_fftbox_interpolate_multiply  : 22050     2563.01s  16.469%  ------ ||
|| density_batch_interp_deposit         :  2100     4974.97s  31.968%  ------ ||
|| density_on_dbl_grid                  :  1050     6058.31s  38.929%  ------ ||
|| hamiltonian_lhxc_calculate           :   509     8383.91s  53.873%  ------ ||
|| edft_calculate                       :    21    10379.05s  66.694%  ------ ||
|| ngwf_cg_optimise                     :     8    11713.91s  75.271%  ------ ||
|| energy_and_forces                    :     8    15499.83s  99.599%  ------ ||
|| total_time                           :     1    15562.29s 100.000%  ------ ||
================================================================================
Overhead of generating timer report: 
- 0 ms averaging over threads,
- 19 ms ensuring consistency across MPI ranks,
- 46 ms printing in order.

Job completed: 01-11-2023 04:43 (+0000)

