 +---------------------------------------------------------------+
 |                                                               |
 |        ####### #     # ####### ####### ####### ######         |
 |        #     # ##    # #          #    #       #     #        |
 |        #     # # #   # #          #    #       #     #        |
 |        #     # #  #  # #####      #    #####   ######         |
 |        #     # #   # # #          #    #       #              |
 |        #     # #    ## #          #    #       #              |
 |        ####### #     # #######    #    ####### #              |
 |                                                               |
 |        Linear-Scaling Ab Initio Total Energy Program          |
 |                                                               |
 |          Release for academic collaborators of ODG            |
 |                                             Version 6.1.59    |
 | Remote: https://github.com/onetep-devel/onetep.git            |
 | Local branch: master                                          |
 | Commit ID: 3df6b8ca88fa1735659d3248d54c94b50edec21b           |
 | Date: Thu Oct 5 13:49:52 2023 +0200                           |
 | Working tree clean                                            |
 |                                                               |
 +---------------------------------------------------------------+
 |                                                               |
 |  Authors:                                                     |
 |  Jacek Dziedzic, Peter D. Haynes, Nicholas D. M. Hine,        |
 |  Arash A. Mostofi, Mike C. Payne and Chris-Kriton Skylaris    |
 |                                                               |
 |  Contributors:                                                |
 |  J. Aarons, L. Andrinopoulos, P. W. Avraam, R. A. Bell,       |
 |  A. Bhandari, G. A. Bramley, R. J. Charlton, S. J. Clark,     |
 |  R. J. Clements, G. C. Constantinescu, F. Corsetti,           |
 |  N. Corsini, O. Dieguez, S. M. M. Dubois, K. K. B. Duff,      |
 |  J. M. Escartin, M. Escobar Azor, A. Greco,                   |
 |  H. Helal, Q. O. Hill, L. P. Lee, J.-H. Li,                   |
 |  E. B. Linscott, G. Moynihan, D. D. O`Regan,                  |
 |  O. K. Okan, M. J. S. Phipps, C. J. Pickard,                  |
 |  J. C. A. Prentice, M. I. J. Probert, L. E. Ratcliff,         |
 |  M. Robinson, A. Ruiz Serrano, M. dos Santos Dias,            |
 |  J. S. Spencer, E. W. Tait, G. Teobaldi, D. Turban,           |
 |  V. Vitale, K. A. Wilkinson, C. Weber, J. C. Womack,          |
 |  N. Yeung and T. J. Zuehlsdorff                               |
 |                                                               |
 |                                   Copyright (c) 2004-2023     |
 |                                                               |
 |  Please cite:                                                 |
 |  "The ONETEP linear-scaling density functional theory program"|
 |   J. Chem. Phys. 152(17) 174111 (2020)                        |
 |                                                               |
 |          in all publications arising from your use of ONETEP. |
 |                                                               |
 +---------------------------------------------------------------+
 |                                                               |
 |   ONETEP is based on developments described in the following  |
 |   publications:                                               |
 |                                                               |
 |  "Nonorthogonal generalized Wannier function pseudopotential  |
 |   plane-wave method".                                         |
 |   C.-K. Skylaris, A. A. Mostofi, P. D. Haynes, O. Dieguez,    |
 |   M. C. Payne.                                                |
 |   Phys. Rev. B 66 035119 (2002).                              |
 |                                                               |
 |  "Preconditioned iterative minimization for linear-scaling    |
 |   electronic structure calculations".                         |
 |   A. A. Mostofi, P. D. Haynes, C.-K. Skylaris, M. C. Payne.   |
 |   J. Chem. Phys. 119(17), pp.8842-8848 (2003).                |
 |                                                               |
 |  "Total-energy calculations on a real space grid with         |
 |   localized functions and a plane-wave basis".                |
 |   A. A. Mostofi, C.-K. Skylaris, P. D. Haynes, M. C. Payne.   |
 |   Comput. Phys. Commun. 147, pp.788-802 (2002).               |
 |                                                               |
 |  "Accurate kinetic energy evaluation in electronic structure  |
 |   calculations with localized functions on real space grids"  |
 |   C.-K. Skylaris, A. A. Mostofi, P. D. Haynes, C. J. Pickard, |
 |   M. C. Payne.                                                |
 |   Comput. Phys. Commun. 140, pp.315-322 (2001).               |
 |                                                               |
 |  "Accurate ionic forces and geometry optimization in linear-  |
 |   scaling density-functional theory with local orbitals"      |
 |   N. D. M. Hine, M. Robinson, P. D. Haynes, C.-K. Skylaris,   |
 |   M. C. Payne, and A. A. Mostofi.                             |
 |   Phys. Rev. B 83 195102 (2011).                              |
 |                                                               |
 +---------------------------------------------------------------+

Job started: 13-12-2023 11:30 (+0000)
 
Reading parameters from file "graphite.dat" ...... done

If your calculation crashes here, before "Checking processes and threads..."
is displayed, then your stack size is insufficient.
If so, use "ulimit -s unlimited" at runtime.
You can disable this check with "check_stack_size F".

Checking processes and threads...
   Determining the default number of threads...
      No default threads set at compilation time: defaulting to 1.
      OpenMP library call suggests 8 threads.
      Hybrid MPI-OpenMP compilation detected.
      Number of MPI processes > 1.
      OMP_NUM_THREADS environment variable present and
      its value matches the one obtained from the OpenMP library call.
      Using this value as default.
      Default threads: 8
      Default applies to threads_max and threads_num_fftboxes.
      Settings in the input file override this default.
   ... done

   Running with 128 MPI processes.
   There are 16 MPI processes running on the same node as the root process.
   Each MPI process is using: 
               1 threads for simulation cell FFTs.
               1 threads for parallel FFT box operations.
               8 threads for loops over batched FFT box operations.
               8 threads in other parallel regions.
   MPI Interface: S1 (use mpi_f08) (-DMPI -DUSE_MPI_F08).
   MPI_ASYNC_PROTECTS_NONBLOCKING: Yes. MPI_SUBARRAYS_SUPPORTED: Yes.
   GPU Interface: None.
... done

Basic input checks...
Resetting ngwf_cg_rotate to TRUE for EDFT calculations
... done

Reading geometry and species blocks from file "graphite.dat" ...
  Reading POSITIONS geometry from str.xyz

  <species_atomic_set> block not found: NGWF initialisation set to SOLVE
IS: Dielectric excluded regions:
    - NONE.
IS: Assigning soft sphere radii for soft sphere solvation...
IS: No soft sphere radii specified. Default Alvarez radii used for all atoms.

----------- SOFT SPHERE RADII -----------
Li  5.333
C   4.442
-----------------------------------------

    
  Number of PPD points along a3 set to 1.  This is 
  the default value, it may have been provided also in the input file.
... done


--------------------------------------------------------------------------------
---------------------------------- INPUT FILE ----------------------------------
--------------------------------------------------------------------------------

task geometryoptimization                                                       
geom_method LBFGS                                                               
geom_continuation T                                                             
write_xyz T                                                                     
edft_grand_canonical T                                                          
edft_reference_potential  -4.42 eV                                              
edft_electrode_potential -0.10 V                                                
edft_nelec_thres 0.000001                                                       
is_dielectric_function soft_sphere                                              
is_implicit_solvent T                                                           
is_smeared_ion_rep T                                                            
is_include_apolar T                                                             
is_solvation_properties F                                                       
is_pbe                    full                                                  
is_pbe_temperature        298.15                                                
is_pbe_bc_debye_screening T                                                     
is_pbe_neutralisation_scheme counterions_auto                                   
is_pbe_energy_tolerance 1E+50                                                   
is_bc_coarseness 5                                                              
is_bc_threshold 1E-9                                                            
is_bulk_permittivity 90.7                                                       
is_solvent_surf_tension 0.0506 N/m                                              
%block sol_ions                                                                 
Li  +1 1.0                                                                      
PF6 -1 1.0                                                                      
%endblock sol_ions                                                              
is_steric_pot_type M                                                            
is_hc_steric_dens_isovalue  0.001                                               
is_hc_steric_smearing         0.4 bohr                                          
is_steric_write T                                                               
%block species_solvent_radius                                                   
Li 3.0                                                                          
C 3.0                                                                           
%endblock species_solvent_radius                                                
multigrid_bc:   P P P                                                           
ion_ion_bc:     P P P                                                           
pspot_bc:       P P P                                                           
smeared_ion_bc: P P P                                                           
mg_max_iters_vcycle 500                                                         
mg_vcyc_smoother_iter_pre 4                                                     
mg_vcyc_smoother_iter_post 4                                                    
mg_max_res_ratio 1000.0                                                         
mg_max_iters_newton 300                                                         
edft                    : T                                                     
edft_smearing_width     : 0.1 eV                                                
spin                    : 0.0                                                   
edft_spin_fix           : 2                                                     
spin_polarized          : T                                                     
cutoff_energy :  1000 eV                                                        
kernel_cutoff : 1000 bohr                                                       
xc_functional PBE                                                               
dispersion 4                                                                    
output_detail VERBOSE                                                           
do_properties T                                                                 
cube_format F                                                                   
dx_format F                                                                     
write_denskern T                                                                
write_tightbox_ngwfs T                                                          
write_hamiltonian T                                                             
%block species                                                                  
Li Li 3  5  8.0                                                                 
C  C  6  4  8.0                                                                 
%endblock species                                                               
%block species_pot                                                              
Li '/work/e89/e89/arihant/pseudo/Li.usp'                                        
C '/work/e89/e89/arihant/pseudo/C.usp'                                          
%endblock species_pot                                                           
%BLOCK LATTICE_CART                                                             
ang                                                                             
34.16920551     0.00000000     0.00000000                                       
0.00000000    19.72760000     0.00000000                                        
0.00000000     0.00000000   100.02798000                                        
%ENDBLOCK LATTICE_CART                                                          
positions_xyz_file str.xyz                                                      
     Hash =  -000003702829418197869708
eigensolver_orfac -1.0                                                          
eigensolver_abstol -1.0                                                         

--------------------------------------------------------------------------------
-------------------------------- END INPUT FILE --------------------------------
--------------------------------------------------------------------------------


 
 ESDF WARNING(1): "ispbeenergytolerance" (esdf_physical) has no units. Assume "hartree".
<<<<<<<<<<<<<<<<<<<<<<<<<<<<<<<<< Full system >>>>>>>>>>>>>>>>>>>>>>>>>>>>>>>>>>
<<<<<<<<<<<<<<<<<<<<<<<<< Pseudopotential information >>>>>>>>>>>>>>>>>>>>>>>>>>
File: /work/e89/e89/arihant/pseudo/Li.usp [ 2001 points up to Gmax=  52.9 (1/bohr)]
  Atomic number:  3;  ionic charge:  3.000000
    Shell 1: l = 0; rc = 1.19 bohr
    Shell 2: l = 0; rc = 1.25 bohr
File: /work/e89/e89/arihant/pseudo/C.usp [ 2001 points up to Gmax=  52.9 (1/bohr)]
  Atomic number:  6;  ionic charge:  4.000000
    Shell 1: l = 0; rc = 1.19 bohr
  Core charge supplied for Nonlinear Core Corrections
<<<<<<<<<<<<<<<<<<<<<<<<<<<<<<<<<<<<<<<<>>>>>>>>>>>>>>>>>>>>>>>>>>>>>>>>>>>>>>>>

-------------------------- Atom counting information ---------------------------
Symbol    Natoms    Nngwfs    Nprojs
  Li        80       400       160
  C        512      2048       512
.......   ......    ......    ......
Totals:    592      2448       672
--------------------------------------------------------------------------------

=============================== PSINC grid sizes ===============================
                      Simulation cell:  143 x  91 x 416
                              FFT-box:  117 x  91 x 117
                                  PPD:   11 x   7 x   1
Grid space d1=  0.451541543008a0 (KE cutoff=  37.25706Eh =1013.81618eV)
Grid space d2=  0.409667706512a0 (KE cutoff=  45.26271Eh =1231.66098eV)
Grid space d3=  0.454388192297a0 (KE cutoff=  36.79171Eh =1001.15326eV)
================================================================================
  
WARNING in cell_grid_distribute:
Average of less than one 23-slab per proc, so workload cannot be
equally balanced between procs.

********************* Fourier parallelisation information **********************
       Coarse grid (whole simulation cell) dimensions:    143    91   416
          Real-space ('12') slabs/proc (min max mean):      3     4     3
         Recip-space ('23') slabs/proc (min max mean):      0     1     0
********************************************************************************

********************* Fourier parallelisation information **********************
       Double grid (whole simulation cell) dimensions:    286   182   832
          Real-space ('12') slabs/proc (min max mean):      6     7     6
         Recip-space ('23') slabs/proc (min max mean):      1     2     1
********************************************************************************

********************* Fourier parallelisation information **********************
         Fine grid (whole simulation cell) dimensions:    288   184   832
          Real-space ('12') slabs/proc (min max mean):      6     7     6
         Recip-space ('23') slabs/proc (min max mean):      1     2     1
         Grid scale modified to satisfy multigrid solver grid constraints
         Grid scale values after modifification:         2.01  2.02  2.00
********************************************************************************
ONETEP fine grid is 288 x 184 x 832 gridpoints, 64.5704 x 37.2798 x 189.0255 bohr.
FD multigrid is     288 x 184 x 832 gridpoints, 64.5704 x 37.2798 x 189.0255 bohr.


Atom SCF Calculation for Li : Z (AE atom) =   3 : Z (PS atom) =   3
Config String:
Orbitals (num,occ):  3     2.00 1.00 0.00
Orbitals   (num,l):  3        0    0    1
Real-space Grid (nr,dr,rmax): 1343    0.0059612519    8.0000000000
Spherical Bessel Basis (nsws,lmax,cutoff):   37    1  220.4959463253
Confining potential (l,width,scale):  0    3.0000000000  100.0000000000
Confining potential (l,width,scale):  1    3.0000000000  100.0000000000
  1         -3.7050169094   -5.2301177776    2.5388568852   -0.9989538802
  2         -6.0510920273   -4.2679357854    3.2724001845   -1.3422946715
  3         -6.7975021434   -3.8722499620    3.6648237887   -1.5325279919
  4         -7.0147472228   -3.7673066376    3.7864613280   -1.5966989055
  5         -7.0774132854   -3.7446783348    3.8157063634   -1.6161454686
  6         -7.0951992563   -3.7420177453    3.8204515040   -1.6217593843
  7         -7.1001226024   -3.7430426481    3.8200527077   -1.6233132433
  8         -7.1014239576   -3.7441529610    3.8191274553   -1.6237164860
  9         -7.1017352306   -3.7448434699    3.8184905098   -1.6238077213
 10         -7.1017916056   -3.7452114113    3.8181373932   -1.6238209669
 11         -7.1017908912   -3.7453946820    3.8179578223   -1.6238181917
 12         -7.1017822190   -3.7454828903    3.8178702968   -1.6238141227
 13         -7.1017768840   -3.7455162316    3.8178369316   -1.6238119017
 14         -7.1017732849   -3.7455353767    3.8178176959   -1.6238104459
 15         -7.1017709700   -3.7455463461    3.8178066371   -1.6238095253
 16         -7.1017695244   -3.7455526225    3.8178002910   -1.6238089565
 17         -7.1017686390   -3.7455562110    3.8177966534   -1.6238086105
 18         -7.1017681040   -3.7455582619    3.8177945697   -1.6238084022
 19         -7.1017677838   -3.7455594341    3.8177933764   -1.6238082778
 20         -7.1017675934   -3.7455601042    3.8177926929   -1.6238082039
 21         -7.1017674808   -3.7455604874    3.8177923014   -1.6238081602
 22         -7.1017674145   -3.7455607066    3.8177920771   -1.6238081344
Atom SCF converged after  22 iterations to a total energy of     -7.10176741

Atom SCF Calculation for C  : Z (AE atom) =   6 : Z (PS atom) =   4
Config String:
Orbitals (num,occ):  2     2.00 2.00
Orbitals   (num,l):  2        0    1
Real-space Grid (nr,dr,rmax): 1343    0.0059612519    8.0000000000
Spherical Bessel Basis (nsws,lmax,cutoff):   37    1  220.4959463253
Confining potential (l,width,scale):  0    3.0000000000  100.0000000000
Confining potential (l,width,scale):  1    3.0000000000  100.0000000000
  1         -5.8177092822   -1.2555419264    4.5135233515   -1.7471920893
  2         -5.6032261188   -1.3440047989    4.4246587726   -1.7090653419
  3         -5.5936068668   -1.3561735374    4.4140765627   -1.7034094417
  4         -5.5958505747   -1.3587284552    4.4121342699   -1.7022848669
  5         -5.5969687665   -1.3601698222    4.4109982405   -1.7017057890
  6         -5.5975400979   -1.3609792837    4.4103423276   -1.7013975981
  7         -5.5978435204   -1.3614297943    4.4099696476   -1.7012314972
  8         -5.5980096069   -1.3616786122    4.4097605138   -1.7011416075
  9         -5.5981021113   -1.3618152853    4.4096441572   -1.7010929151
 10         -5.5981539939   -1.3618900852    4.4095797860   -1.7010665406
 11         -5.5981831160   -1.3619309228    4.4095443105   -1.7010522599
 12         -5.5981994243   -1.3619531807    4.4095248124   -1.7010445305
 13         -5.5982085235   -1.3619652972    4.4095141175   -1.7010403487
 14         -5.5982135796   -1.3619718867    4.4095082606   -1.7010380870
 15         -5.5982163780   -1.3619754676    4.4095050573   -1.7010368642
 16         -5.5982179208   -1.3619774123    4.4095033073   -1.7010362032
 17         -5.5982187685   -1.3619784678    4.4095023522   -1.7010358460
 18         -5.5982192328   -1.3619790404    4.4095018314   -1.7010356530
 19         -5.5982194864   -1.3619793509    4.4095015476   -1.7010355488
 20         -5.5982196245   -1.3619795192    4.4095013931   -1.7010354925
 21         -5.5982196995   -1.3619796104    4.4095013090   -1.7010354621
Atom SCF converged after  21 iterations to a total energy of     -5.59821970

BC: Task: GEOMETRYOPTIMIZATION
BC: +++++++++++++++ Summary of boundary conditions ++++++++++++++
BC: |       Component       |     Keyword     |   Periodicity   |
BC: |                       |                 |     X  Y  Z [1] |
BC: |-----------------------------------------------------------|
BC: | Ion-ion               | ion_ion_bc [2]  |     P  P  P     |
BC: | Local pseudopotential | pspot_bc [3]    |     P  P  P     |
BC: | Multigrid solver      | multigrid_bc    |     P  P  P     |
BC: | Smeared ions          | smeared_ion_bc  |     P  P  P     |
BC: | Van der Waals         | vdw_bc          |     P  P  P     |
BC: +++++++++++++++++++++++++++++++++++++++++++++++++++++++++++++
BC: P: Periodic, O: Open.
BC: [1] Not strictly along X, Y, Z but rather along lattice vectors A1, A2, A3.
BC: [2] Also affected by: pbc_correction_cutoff, cutoff_coulomb_type,
BC:     is_smeared_ion_rep, is_implicit_solvent, openbc_ion_ion.
BC: [3] Also affected by: is_smeared_ion_rep, is_implicit_solvent, openbc_pspot.

================================================================================
<<<<<<<<<<<<<<<< Resuming previous ONETEP Geometry Optimisation >>>>>>>>>>>>>>>>
================================================================================

 Geometry Optimisation: output file is "graphite.geom"
 
 Reading continuation file "graphite.continuation" ...done
 Geometry Optimisation: read_tightbox_ngwfs parameter over-ridden to TRUE
 Geometry Optimisation: read_hamiltonian parameter over-ridden to T
 
                           -------------------------------
                                     Cell Contents
                           -------------------------------
 
            xxxxxxxxxxxxxxxxxxxxxxxxxxxxxxxxxxxxxxxxxxxxxxxxxxxxxxxxxxxx
            x  Element    Atom      Absolute co-ordinates of atoms     x
            x            Number        x           y           z       x
            x----------------------------------------------------------x
            x    Li        1       42.904000   19.479600   16.938027   x
            x    Li        2       54.034882   30.949260   16.965125   x
            x    Li        3       43.959423   25.786800   16.601637   x
            x    Li        4       52.136581   36.060926   16.818466   x
            x    Li        5       47.912816   32.794641   16.696679   x
            x    Li        6       47.945805   22.154352   16.841307   x
            x    Li        7       41.912530   31.369376   16.931864   x
            x    Li        8       36.428762   32.793749   17.019989   x
            x    Li        9       37.123730   21.104657   16.750971   x
            x    Li       10       40.463624   37.013193   16.730766   x
            x    Li       11       38.004964   27.087850   17.071349   x
            x    Li       12       46.886624    1.516079   17.185626   x
            x    Li       13       49.583151   27.442949   17.276655   x
            x    Li       14       41.627535   22.988519   20.522650   x
            x    Li       15       50.501138   31.482283   20.993923   x
            x    Li       16       49.551114   36.008428   21.295241   x
            x    Li       17       44.575435   34.917833   20.866012   x
            x    Li       18       52.016807    3.484414   20.982780   x
            x    Li       19       46.097126   24.870267   21.285825   x
            x    Li       20       39.534813   33.239914   21.299584   x
            x    Li       21       45.378425   29.989182   20.911526   x
            x    Li       22       54.642429   34.763726   21.891275   x
            x    Li       23       40.654368   28.093118   21.354068   x
            x    Li       24       39.384546   17.966968   21.752352   x
            x    Li       25       45.581839   19.755723   22.123487   x
            x    Li       26       35.696457   30.183367   22.242629   x
            x    Li       27       35.098917   36.422953   21.647762   x
            x    Li       28       50.974302   23.075726   22.263388   x
            x    Li       29       37.068734   24.092131   22.310899   x
            x    Li       30       54.348859   28.292795   22.667563   x
            x    Li       31       40.619484    0.540582   23.004510   x
            x    Li       32       46.438034    2.295713   23.269674   x
            x    Li       33       48.970553   27.941606   24.162846   x
            x    Li       34       47.287923   33.452675   25.292892   x
            x    Li       35       43.462316   26.720135   25.347472   x
            x    Li       36       42.420581   31.818273   25.299183   x
            x    Li       37       50.959007    0.274585   26.347231   x
            x    Li       38       41.386366   22.187654   25.940786   x
            x    Li       39       51.878816   31.874586   26.435211   x
            x    Li       40       47.029589   23.406078   26.773475   x
            x    Li       41       37.691012   34.092762   26.476985   x
            x    Li       42       43.890125   36.302323   27.699367   x
            x    Li       43       38.901783   27.866412   27.037175   x
            x    Li       44       46.295013   29.456032   28.138051   x
            x    Li       45       51.130760   26.904145   29.432679   x
            x    Li       46       43.309031   25.423113   30.938621   x
            x    Li       47       48.336851   33.757075   30.997730   x
            x    Li       48       42.048244   31.568316   30.817141   x
            x    C        49       18.905488    9.194155   12.955190   x
            x    C        50       13.522693    9.194292   12.953104   x
            x    C        51       14.864181   11.529257   12.953621   x
            x    C        52       17.563624   11.529201   12.954382   x
            x    C        53       51.219387   27.827773   13.135090   x
            x    C        54       45.806322   27.844491   12.932715   x
            x    C        55       47.159172   30.175835   12.959206   x
            x    C        56       49.857831   30.180799   13.070573   x
            x    C        57       14.864462    6.859039   12.955156   x
            x    C        58       17.563396    6.859034   12.955898   x
            x    C        59       21.585971   13.852895   12.952836   x
            x    C        60       18.899889   13.853140   12.932837   x
            x    C        61       13.528495   13.853268   12.933686   x
            x    C        62       14.864661   16.177216   12.955897   x
            x    C        63       17.563715   16.177107   12.955698   x
            x    C        64       47.155444   25.493017   13.070197   x
            x    C        65       49.873151   25.494593   13.145865   x
            x    C        66       53.906691   32.510138   12.952101   x
            x    C        67       51.210459   32.505473   13.009564   x
            x    C        68       45.809120   32.509892   12.904456   x
            x    C        69       47.153541   34.837707   12.942938   x
            x    C        70       49.861686   34.839697   12.968523   x
            x    C        71       14.864093    2.210129   12.960443   x
            x    C        72       17.562569    2.210828   12.960871   x
            x    C        73       22.926976    2.200723   12.959218   x
            x    C        74        9.500767    2.199229   12.961634   x
            x    C        75       63.310956    2.217904   12.958431   x
            x    C        76        6.801686    2.200452   12.962786   x
            x    C        77       30.985117    2.221113   12.956576   x
            x    C        78        1.436865    2.214310   12.962516   x
            x    C        79       25.623970    2.202901   12.959694   x
            x    C        80       33.683116    2.224150   12.961420   x
            x    C        81       39.060032    2.229939   13.013117   x
            x    C        82       55.251547    2.225595   12.941832   x
            x    C        83       57.947687    2.217733   12.942502   x
            x    C        84       47.154721    2.246600   12.966286   x
            x    C        85       41.767574    2.232206   13.029893   x
            x    C        86       49.864170    2.248029   12.963745   x
            x    C        87       18.899018    4.534905   12.936597   x
            x    C        88       13.528831    4.534686   12.936827   x
            x    C        89       10.842422    4.535036   12.958388   x
            x    C        90       26.966826    4.538144   12.958841   x
            x    C        91        5.458788    4.536352   12.962379   x
            x    C        92       21.585332    4.536140   12.956358   x
            x    C        93       59.287344    4.547346   12.952340   x
            x    C        94        2.772903    4.538135   12.942145   x
            x    C        95       35.028265    4.551806   12.948180   x
            x    C        96       61.973754    4.543044   12.937967   x
            x    C        97       29.652996    4.541155   12.935025   x
            x    C        98       43.117179    4.568561   13.016871   x
            x    C        99       51.205609    4.565260   12.917785   x
            x    C       100       37.713619    4.559765   12.993124   x
            x    C       101       53.898341    4.561203   12.929122   x
            x    C       102       45.809718    4.570428   12.985481   x
            x    C       103       22.927613    6.870655   12.957262   x
            x    C       104       63.307917    6.864154   12.963868   x
            x    C       105        6.801171    6.872005   12.960771   x
            x    C       106       30.991509    6.864158   12.954649   x
            x    C       107       39.066602    6.887327   12.986257   x
            x    C       108       57.941770    6.882858   12.951940   x
            x    C       109        1.436555    6.862458   12.962478   x
            x    C       110        9.500374    6.871002   12.958655   x
            x    C       111       25.626341    6.872079   12.959398   x
            x    C       112       33.692542    6.867221   12.962597   x
            x    C       113       55.240353    6.886597   12.941482   x
            x    C       114       47.156833    6.884758   12.971520   x
            x    C       115       41.770730    6.889693   12.994972   x
            x    C       116       49.862390    6.881939   12.941099   x
            x    C       117       51.210264    9.207834   12.941095   x
            x    C       118       59.276606    9.202139   12.937580   x
            x    C       119        2.778357    9.196839   12.960483   x
            x    C       120       26.962175    9.195188   12.937288   x
            x    C       121       35.039848    9.198410   12.964194   x
            x    C       122       43.116171    9.204210   12.953197   x
            x    C       123       53.898974    9.207480   12.922951   x
            x    C       124       61.964973    9.200007   12.963407   x
            x    C       125        5.465448    9.196028   12.939287   x
            x    C       126       21.592036    9.194379   12.934972   x
            x    C       127       29.650839    9.196213   12.956340   x
            x    C       128       37.727624    9.200756   12.949126   x
            x    C       129       45.806930    9.206242   12.964312   x
            x    C       130       10.835756    9.194941   12.934892   x
            x    C       131       47.159032   11.532798   12.945266   x
            x    C       132       55.237541   11.524275   12.953323   x
            x    C       133       63.306808   11.533210   12.964494   x
            x    C       134       30.993309   11.528134   12.959491   x
            x    C       135       39.070366   11.516189   12.961025   x
            x    C       136       49.861681   11.533442   12.942768   x
            x    C       137       57.938984   11.524185   12.956306   x
            x    C       138        1.436917   11.532205   12.962480   x
            x    C       139       33.695574   11.529359   12.962553   x
            x    C       140       41.772995   11.516353   12.959836   x
            x    C       141        6.801308   11.519583   12.959626   x
            x    C       142       22.927138   11.518071   12.955372   x
            x    C       143       25.626837   11.517818   12.959199   x
            x    C       144        9.500218   11.518872   12.957214   x
            x    C       145       45.817304   13.844771   12.908720   x
            x    C       146       43.123604   13.840841   12.934075   x
            x    C       147       51.204992   13.852546   12.922916   x
            x    C       148       59.282169   13.856721   12.958296   x
            x    C       149       35.031860   13.845256   12.941652   x
            x    C       150       53.893341   13.854080   12.953040   x
            x    C       151       61.970142   13.856862   12.941191   x
            x    C       152       29.656221   13.852118   12.942888   x
            x    C       153       37.722738   13.844787   12.954809   x
            x    C       154        2.772684   13.855624   12.941093   x
            x    C       155       26.967946   13.852406   12.961015   x
            x    C       156        5.459381   13.854579   12.960662   x
            x    C       157       10.841955   13.853450   12.955973   x
            x    C       158       47.162840   16.159771   12.934019   x
            x    C       159       55.240694   16.187490   12.960583   x
            x    C       160       41.772291   16.166622   12.923302   x
            x    C       161       49.865815   16.165522   12.944152   x
            x    C       162       39.067692   16.165301   12.936501   x
            x    C       163       63.307142   16.180111   12.962445   x
            x    C       164       30.990370   16.172235   12.972957   x
            x    C       165       57.940256   16.189346   12.958067   x
            x    C       166       33.690397   16.167510   12.975512   x
            x    C       167        6.801466   16.189095   12.961349   x
            x    C       168        1.436328   16.179743   12.961715   x
            x    C       169       25.625394   16.187959   12.960916   x
            x    C       170       22.927571   16.188526   12.955501   x
            x    C       171        9.500127   16.188581   12.959517   x
            x    C       172       51.221108   18.497670   12.976307   x
            x    C       173       45.810595   18.487516   12.946000   x
            x    C       174       43.119172   18.487048   12.857786   x
            x    C       175       53.903391   18.504730   12.954442   x
            x    C       176       35.033046   18.495941   12.982170   x
            x    C       177       59.279281   18.512667   12.936842   x
            x    C       178       37.723236   18.496556   12.926718   x
            x    C       179       61.965251   18.513755   12.959227   x
            x    C       180       29.645179   18.509645   12.974508   x
            x    C       181        2.778414   18.513979   12.960495   x
            x    C       182       26.960965   18.510808   12.944223   x
            x    C       183        5.465196   18.513508   12.941422   x
            x    C       184       10.836170   18.512643   12.938813   x
            x    C       185       18.906011   18.512533   12.956711   x
            x    C       186       21.591413   18.511824   12.934561   x
            x    C       187       13.522714   18.512681   12.957257   x
            x    C       188       47.162426   20.829353   12.931620   x
            x    C       189       49.874524   20.831059   13.007541   x
            x    C       190       55.247573   20.833124   12.985783   x
            x    C       191       41.775841   20.827362   12.899020   x
            x    C       192       30.983044   20.842259   12.985174   x
            x    C       193       39.068000   20.822055   12.898423   x
            x    C       194       63.309182   20.849027   12.958184   x
            x    C       195       33.679757   20.843380   12.996043   x
            x    C       196       57.943880   20.833612   12.962894   x
            x    C       197        1.436093   20.849017   12.960835   x
            x    C       198        6.801766   20.836974   12.964188   x
            x    C       199       22.927750   20.836188   12.956867   x
            x    C       200       25.622987   20.835076   12.962925   x
            x    C       201       14.864774   20.848353   12.960010   x
            x    C       202        9.500784   20.837303   12.962884   x
            x    C       203       17.563137   20.847891   12.958932   x
            x    C       204       51.220211   23.157818   13.092654   x
            x    C       205       45.818287   23.167557   12.960023   x
            x    C       206       43.118960   23.166706   12.932022   x
            x    C       207       59.290934   23.171071   12.955736   x
            x    C       208       37.713425   23.169007   12.933685   x
            x    C       209       53.905957   23.161890   13.047618   x
            x    C       210       26.965154   23.171188   12.969667   x
            x    C       211       35.018861   23.163537   12.967703   x
            x    C       212        2.774034   23.172519   12.941885   x
            x    C       213       29.646264   23.170398   12.959676   x
            x    C       214       61.974490   23.171704   12.931726   x
            x    C       215       10.843196   23.173230   12.962976   x
            x    C       216       18.899072   23.172487   12.937732   x
            x    C       217        5.459325   23.173348   12.965394   x
            x    C       218       21.583875   23.171747   12.955676   x
            x    C       219       13.528673   23.173142   12.941373   x
            x    C       220       55.256776   25.501557   13.036752   x
            x    C       221       30.981157   25.494373   12.987792   x
            x    C       222       39.063605   25.512401   12.940557   x
            x    C       223       63.313834   25.495835   12.955091   x
            x    C       224        6.803160   25.509010   12.966645   x
            x    C       225       25.620529   25.507028   12.964807   x
            x    C       226       33.675139   25.498420   12.991202   x
            x    C       227       41.772378   25.511481   12.875803   x
            x    C       228       57.948739   25.502616   12.967165   x
            x    C       229        1.437961   25.497484   12.961045   x
            x    C       230       22.925689   25.507749   12.959225   x
            x    C       231       14.863958   25.497903   12.963679   x
            x    C       232        9.501628   25.509682   12.966053   x
            x    C       233       17.561718   25.496896   12.962598   x
            x    C       234       18.904222   27.833135   12.963272   x
            x    C       235       26.956408   27.833394   12.946054   x
            x    C       236       35.021312   27.830643   12.983158   x
            x    C       237       59.293427   27.834210   12.931117   x
            x    C       238        2.781942   27.833618   12.961927   x
            x    C       239       10.837202   27.833830   12.944901   x
            x    C       240       21.588733   27.833253   12.939242   x
            x    C       241       29.635887   27.832927   12.976917   x
            x    C       242       37.718752   27.834904   12.912839   x
            x    C       243       53.918435   27.828091   13.081892   x
            x    C       244       61.973015   27.833559   12.952291   x
            x    C       245        5.466884   27.833932   12.945117   x
            x    C       246       13.522285   27.833751   12.964205   x
            x    C       247       43.119935   27.841071   12.851873   x
            x    C       248       14.863398   30.169273   12.965698   x
            x    C       249       22.925436   30.158700   12.959597   x
            x    C       250       30.978491   30.171570   12.972619   x
            x    C       251       63.316178   30.171208   12.951334   x
            x    C       252        6.803945   30.158987   12.967031   x
            x    C       253       17.561013   30.169463   12.964723   x
            x    C       254       25.619941   30.159240   12.961029   x
            x    C       255       33.672040   30.169285   12.983460   x
            x    C       256        1.439978   30.171065   12.960396   x
            x    C       257        9.501700   30.158643   12.966744   x
            x    C       258       39.066361   30.167413   12.991364   x
            x    C       259       55.261574   30.157327   12.963575   x
            x    C       260       57.965762   30.159665   12.946008   x
            x    C       261       41.770507   30.171858   12.866577   x
            x    C       262       13.528222   32.493888   12.944355   x
            x    C       263       10.843176   32.494024   12.965164   x
            x    C       264       18.897709   32.494135   12.941451   x
            x    C       265       26.963872   32.496291   12.958567   x
            x    C       266        2.776015   32.496412   12.942151   x
            x    C       267       21.582757   32.494864   12.958387   x
            x    C       268       29.642023   32.497246   12.933237   x
            x    C       269       61.979893   32.498852   12.919524   x
            x    C       270        5.460494   32.495197   12.966465   x
            x    C       271       35.014340   32.505340   12.916732   x
            x    C       272       59.303974   32.500748   12.927495   x
            x    C       273       37.706026   32.507190   12.919273   x
            x    C       274       43.121873   32.506734   12.915684   x
            x    C       275       14.863568   34.818077   12.963988   x
            x    C       276       22.926507   34.830999   12.959553   x
            x    C       277        9.501219   34.829585   12.965260   x
            x    C       278       17.561365   34.818952   12.963501   x
            x    C       279        6.803397   34.830830   12.965249   x
            x    C       280       30.978477   34.828890   12.954438   x
            x    C       281       63.316001   34.825927   12.950340   x
            x    C       282       25.621290   34.833369   12.957783   x
            x    C       283        1.438476   34.822448   12.960385   x
            x    C       284       39.057061   34.851980   12.974214   x
            x    C       285       33.672157   34.832966   12.965214   x
            x    C       286       57.956234   34.845432   12.930271   x
            x    C       287       55.261299   34.848866   12.955530   x
            x    C       288       41.763622   34.851612   12.981226   x
            x    C       289       18.904735   37.154652   12.962468   x
            x    C       290       13.522361   37.154097   12.961431   x
            x    C       291       10.837088   37.154297   12.941759   x
            x    C       292       21.590313   37.156042   12.939683   x
            x    C       293        2.780888   37.158582   12.961371   x
            x    C       294       26.957999   37.158671   12.936171   x
            x    C       295        5.465469   37.156006   12.942678   x
            x    C       296       29.639756   37.162403   12.955694   x
            x    C       297       61.969589   37.163011   12.949394   x
            x    C       298       35.020895   37.177445   12.970045   x
            x    C       299       59.288200   37.166111   12.915855   x
            x    C       300       37.710502   37.178117   12.976148   x
            x    C       301       43.111726   37.180396   13.011159   x
            x    C       302       51.216516   37.184166   12.893274   x
            x    C       303       53.912948   37.183079   12.909130   x
            x    C       304       45.800790   37.181953   13.016403   x
            x    Li      305        0.071852   37.159533    9.397424   x
            x    Li      306        0.075468   27.833980    9.397158   x
            x    Li      307        0.066937   18.512034    9.398210   x
            x    Li      308        0.063296    9.197637    9.397471   x
            x    Li      309        8.145430   32.493129    9.402829   x
            x    Li      310        8.144869   23.176115    9.400638   x
            x    Li      311        8.145136   13.857060    9.393775   x
            x    Li      312        8.145232    4.532998    9.395843   x
            x    Li      313       16.226410    9.194249    9.387958   x
            x    Li      314       16.225742   18.514440    9.392125   x
            x    Li      315       16.225574   27.834817    9.400979   x
            x    Li      316       16.226112   37.155212    9.397838   x
            x    Li      317       24.295144   32.494525    9.397690   x
            x    Li      318       24.300988   23.174588    9.397841   x
            x    Li      319       24.305612   13.854708    9.391666   x
            x    Li      320       24.304173    4.535096    9.393823   x
            x    Li      321       32.340285   37.180622    9.406421   x
            x    Li      322       32.339751   27.821788    9.431476   x
            x    Li      323       32.340617   18.501103    9.417898   x
            x    Li      324       32.364785    9.197980    9.394864   x
            x    Li      325       40.417433   32.533788    9.425061   x
            x    Li      326       40.436319   23.173465    9.401980   x
            x    Li      327       40.413527   13.814668    9.391353   x
            x    Li      328       40.435612    4.557428    9.433823   x
            x    Li      329       48.469125   37.178890    9.425135   x
            x    Li      330       48.584958   27.811614    9.485922   x
            x    Li      331       48.547718   18.494303    9.404945   x
            x    Li      332       48.493703    9.208401    9.388953   x
            x    Li      333       56.598102   32.494726    9.403737   x
            x    Li      334       56.555335   23.172892    9.422848   x
            x    Li      335       56.568202   13.858264    9.391269   x
            x    Li      336       56.588666    4.557974    9.390468   x
            x    C       337       18.914351    9.191905    5.820716   x
            x    C       338       13.524635    9.192165    5.821982   x
            x    C       339       14.869858   11.528062    5.820105   x
            x    C       340       17.569443   11.528220    5.819283   x
            x    C       341       51.202644   27.832658    5.900572   x
            x    C       342       45.812381   27.832560    5.941603   x
            x    C       343       47.155780   30.168064    5.939363   x
            x    C       344       49.857864   30.168813    5.921087   x
            x    C       345       14.869631    6.856009    5.822411   x
            x    C       346       17.569687    6.856225    5.821221   x
            x    C       347       21.595769   13.852660    5.822163   x
            x    C       348       18.908115   13.852592    5.841392   x
            x    C       349       13.530852   13.852809    5.842600   x
            x    C       350       14.869760   16.177327    5.822753   x
            x    C       351       17.569367   16.177139    5.821445   x
            x    C       352       47.155952   25.496806    5.924573   x
            x    C       353       49.858296   25.496260    5.902429   x
            x    C       354       53.883843   32.493374    5.881820   x
            x    C       355       51.195458   32.493405    5.928925   x
            x    C       356       45.817790   32.492014    5.948348   x
            x    C       357       47.154651   34.816240    5.909008   x
            x    C       358       49.857104   34.817338    5.906457   x
            x    C       359       14.869944    2.207064    5.827343   x
            x    C       360       17.569394    2.207054    5.825352   x
            x    C       361       22.939885    2.196362    5.824138   x
            x    C       362        9.499133    2.196280    5.829067   x
            x    C       363       63.299367    2.208348    5.826081   x
            x    C       364        6.800043    2.196376    5.828496   x
            x    C       365       31.010177    2.208637    5.826862   x
            x    C       366        1.429378    2.208590    5.828137   x
            x    C       367       25.640004    2.196236    5.821843   x
            x    C       368       33.711221    2.208607    5.841491   x
            x    C       369       39.081567    2.197626    5.879079   x
            x    C       370       55.227559    2.197373    5.849911   x
            x    C       371       57.928687    2.197626    5.834625   x
            x    C       372       47.154404    2.208924    5.871212   x
            x    C       373       41.783697    2.197327    5.883344   x
            x    C       374       49.856605    2.209039    5.870805   x
            x    C       375       18.908346    4.531675    5.844407   x
            x    C       376       13.531100    4.531807    5.846521   x
            x    C       377       10.844009    4.531925    5.827612   x
            x    C       378       26.984335    4.532282    5.820315   x
            x    C       379        5.454932    4.532507    5.829080   x
            x    C       380       21.595603    4.531643    5.824427   x
            x    C       381       59.272910    4.532701    5.823188   x
            x    C       382        2.767516    4.532476    5.849945   x
            x    C       383       35.049105    4.533168    5.862359   x
            x    C       384       61.960961    4.533060    5.844417   x
            x    C       385       29.672192    4.532493    5.841296   x
            x    C       386       43.127469    4.533099    5.865311   x
            x    C       387       51.194585    4.533329    5.870081   x
            x    C       388       37.737968    4.532951    5.859321   x
            x    C       389       53.883243    4.533175    5.840606   x
            x    C       390       45.816566    4.533418    5.878567   x
            x    C       391       22.940028    6.867599    5.822188   x
            x    C       392       63.299202    6.857267    5.824570   x
            x    C       393        6.799554    6.867819    5.827697   x
            x    C       394       31.010418    6.857128    5.820309   x
            x    C       395       39.081701    6.868314    5.846195   x
            x    C       396       57.928587    6.868947    5.817675   x
            x    C       397        1.429164    6.857391    5.829158   x
            x    C       398        9.499175    6.867562    5.826145   x
            x    C       399       25.640292    6.867762    5.819550   x
            x    C       400       33.711139    6.856897    5.825929   x
            x    C       401       55.227371    6.868741    5.821302   x
            x    C       402       47.154382    6.857154    5.836870   x
            x    C       403       41.783718    6.868324    5.847840   x
            x    C       404       49.856794    6.857385    5.833410   x
            x    C       405       51.200321    9.192680    5.819876   x
            x    C       406       59.266264    9.192950    5.838190   x
            x    C       407        2.773602    9.192452    5.829745   x
            x    C       408       26.978387    9.192026    5.838705   x
            x    C       409       35.055263    9.192494    5.822968   x
            x    C       410       43.121179    9.192594    5.851158   x
            x    C       411       53.889692    9.192934    5.837545   x
            x    C       412       61.954806    9.192804    5.822112   x
            x    C       413        5.460928    9.192706    5.849236   x
            x    C       414       21.601955    9.191931    5.842191   x
            x    C       415       29.666483    9.192214    5.817921   x
            x    C       416       37.744135    9.192149    5.848282   x
            x    C       417       45.810547    9.192824    5.825801   x
            x    C       418       10.837893    9.192322    5.844768   x
            x    C       419       47.154271   11.528475    5.819407   x
            x    C       420       55.227586   11.517238    5.814346   x
            x    C       421       63.299029   11.528232    5.823749   x
            x    C       422       31.010443   11.527413    5.819239   x
            x    C       423       39.081638   11.516447    5.822552   x
            x    C       424       49.856749   11.528218    5.815755   x
            x    C       425       57.928440   11.517204    5.817407   x
            x    C       426        1.428896   11.528077    5.828010   x
            x    C       427       33.711544   11.527681    5.819899   x
            x    C       428       41.784070   11.516791    5.825616   x
            x    C       429        6.799449   11.516892    5.826833   x
            x    C       430       22.940333   11.516711    5.821524   x
            x    C       431       25.640235   11.516579    5.818685   x
            x    C       432        9.498958   11.517113    5.825192   x
            x    C       433       45.816986   13.852660    5.852295   x
            x    C       434       43.127789   13.852309    5.836711   x
            x    C       435       51.194803   13.852165    5.836819   x
            x    C       436       59.272577   13.852891    5.820310   x
            x    C       437       35.049285   13.851800    5.850324   x
            x    C       438       53.883661   13.852395    5.815136   x
            x    C       439       61.960705   13.852598    5.843422   x
            x    C       440       29.672549   13.852130    5.843314   x
            x    C       441       37.738036   13.851859    5.830649   x
            x    C       442        2.767380   13.852576    5.849014   x
            x    C       443       26.984592   13.852096    5.820082   x
            x    C       444        5.454791   13.852568    5.827779   x
            x    C       445       10.843872   13.852665    5.824374   x
            x    C       446       47.155152   16.176763    5.842504   x
            x    C       447       55.227919   16.188169    5.818799   x
            x    C       448       41.784279   16.187643    5.856104   x
            x    C       449       49.857211   16.176491    5.827931   x
            x    C       450       39.082438   16.187508    5.852372   x
            x    C       451       63.299042   16.177039    5.824422   x
            x    C       452       31.010535   16.176332    5.834134   x
            x    C       453       57.928833   16.187969    5.820335   x
            x    C       454       33.711543   16.176583    5.843135   x
            x    C       455        6.799533   16.188562    5.826175   x
            x    C       456        1.429045   16.177014    5.827651   x
            x    C       457       25.639972   16.188141    5.821216   x
            x    C       458       22.939945   16.187717    5.821404   x
            x    C       459        9.499190   16.188603    5.825376   x
            x    C       460       51.201603   18.512028    5.836072   x
            x    C       461       45.811456   18.512087    5.869720   x
            x    C       462       43.122416   18.511403    5.896329   x
            x    C       463       53.890748   18.512083    5.848725   x
            x    C       464       35.055911   18.511755    5.864191   x
            x    C       465       59.266473   18.513002    5.846353   x
            x    C       466       37.744943   18.511693    5.890143   x
            x    C       467       61.954797   18.512573    5.825511   x
            x    C       468       29.666171   18.512635    5.837360   x
            x    C       469        2.773460   18.512951    5.828711   x
            x    C       470       26.977989   18.512197    5.847615   x
            x    C       471        5.461195   18.512721    5.848920   x
            x    C       472       10.837846   18.512853    5.847473   x
            x    C       473       18.914365   18.512770    5.822010   x
            x    C       474       21.601655   18.512918    5.842171   x
            x    C       475       13.524921   18.512949    5.825829   x
            x    C       476       47.155277   20.847883    5.883224   x
            x    C       477       49.857973   20.847683    5.863391   x
            x    C       478       55.228182   20.836543    5.837143   x
            x    C       479       41.785157   20.835872    5.883909   x
            x    C       480       31.010356   20.847794    5.851919   x
            x    C       481       39.082726   20.835752    5.879995   x
            x    C       482       63.299080   20.848524    5.827171   x
            x    C       483       33.711859   20.848071    5.869357   x
            x    C       484       57.929065   20.837025    5.834146   x
            x    C       485        1.429302   20.848123    5.828012   x
            x    C       486        6.799731   20.837353    5.829226   x
            x    C       487       22.939876   20.836805    5.822615   x
            x    C       488       25.640129   20.836982    5.826069   x
            x    C       489       14.869603   20.848431    5.825834   x
            x    C       490        9.499305   20.837280    5.829403   x
            x    C       491       17.569649   20.848452    5.823067   x
            x    C       492       51.195910   23.171624    5.893660   x
            x    C       493       45.818439   23.172028    5.928448   x
            x    C       494       43.129500   23.172126    5.898546   x
            x    C       495       59.272891   23.172679    5.838517   x
            x    C       496       37.738513   23.172651    5.885748   x
            x    C       497       53.884610   23.171978    5.853399   x
            x    C       498       26.984365   23.172001    5.832807   x
            x    C       499       35.049583   23.172214    5.902744   x
            x    C       500        2.767459   23.172906    5.848939   x
            x    C       501       29.672351   23.172521    5.869012   x
            x    C       502       61.961124   23.172416    5.851638   x
            x    C       503       10.843736   23.172729    5.831030   x
            x    C       504       18.908166   23.172414    5.844804   x
            x    C       505        5.455211   23.172698    5.829479   x
            x    C       506       21.595743   23.172460    5.823856   x
            x    C       507       13.531233   23.172632    5.849979   x
            x    C       508       55.228750   25.508017    5.856206   x
            x    C       509       31.010461   25.496353    5.861067   x
            x    C       510       39.082602   25.508807    5.894831   x
            x    C       511       63.299345   25.497112    5.828991   x
            x    C       512        6.799514   25.508226    5.829263   x
            x    C       513       25.640166   25.508223    5.828943   x
            x    C       514       33.711878   25.496563    5.880343   x
            x    C       515       41.785458   25.509261    5.904979   x
            x    C       516       57.929866   25.507973    5.844182   x
            x    C       517        1.429548   25.496837    5.827395   x
            x    C       518       22.939918   25.507968    5.824026   x
            x    C       519       14.869514   25.496813    5.829892   x
            x    C       520        9.499446   25.507995    5.830992   x
            x    C       521       17.569566   25.496966    5.827038   x
            x    C       522       18.913889   27.832328    5.826465   x
            x    C       523       26.977987   27.832128    5.857101   x
            x    C       524       35.055884   27.832302    5.892970   x
            x    C       525       59.267413   27.832209    5.859846   x
            x    C       526        2.773775   27.832402    5.828044   x
            x    C       527       10.837625   27.832506    5.852602   x
            x    C       528       21.601888   27.832214    5.845081   x
            x    C       529       29.666325   27.832248    5.853853   x
            x    C       530       37.744581   27.832817    5.924231   x
            x    C       531       53.891777   27.832642    5.894539   x
            x    C       532       61.955624   27.832167    5.831078   x
            x    C       533        5.461521   27.832442    5.849747   x
            x    C       534       13.525121   27.832393    5.831904   x
            x    C       535       43.123001   27.832771    5.948869   x
            x    C       536       14.869510   30.167738    5.830059   x
            x    C       537       22.939796   30.156582    5.824735   x
            x    C       538       31.010029   30.167781    5.863108   x
            x    C       539       63.299796   30.168114    5.827774   x
            x    C       540        6.799765   30.156524    5.830206   x
            x    C       541       17.569712   30.167795    5.827286   x
            x    C       542       25.640011   30.156428    5.829953   x
            x    C       543       33.711391   30.168026    5.883951   x
            x    C       544        1.429624   30.167871    5.826734   x
            x    C       545        9.499647   30.156536    5.831529   x
            x    C       546       39.082365   30.156565    5.906210   x
            x    C       547       55.228647   30.156999    5.866343   x
            x    C       548       57.930030   30.156932    5.844653   x
            x    C       549       41.784815   30.156565    5.919536   x
            x    C       550       13.531338   32.491925    5.851552   x
            x    C       551       10.843920   32.491831    5.832018   x
            x    C       552       18.907742   32.492057    5.846607   x
            x    C       553       26.984006   32.492239    5.832616   x
            x    C       554        2.767861   32.492122    5.848800   x
            x    C       555       21.595797   32.491908    5.825016   x
            x    C       556       29.672339   32.491856    5.868507   x
            x    C       557       61.962123   32.492676    5.850117   x
            x    C       558        5.455796   32.492033    5.829900   x
            x    C       559       35.048446   32.492252    5.906237   x
            x    C       560       59.273379   32.492624    5.837174   x
            x    C       561       37.737589   32.492493    5.894399   x
            x    C       562       43.128756   32.492332    5.916159   x
            x    C       563       14.869506   34.816272    5.829399   x
            x    C       564       22.939582   34.827400    5.823506   x
            x    C       565        9.499931   34.827528    5.830444   x
            x    C       566       17.569800   34.815987    5.826771   x
            x    C       567        6.799845   34.827365    5.829692   x
            x    C       568       31.009820   34.816589    5.847329   x
            x    C       569       63.299514   34.816438    5.828433   x
            x    C       570       25.640079   34.827244    5.825214   x
            x    C       571        1.429840   34.816704    5.828232   x
            x    C       572       39.081524   34.828895    5.887846   x
            x    C       573       33.711132   34.816512    5.866451   x
            x    C       574       57.929271   34.828779    5.843335   x
            x    C       575       55.227759   34.829264    5.866505   x
            x    C       576       41.784313   34.828679    5.897259   x
            x    C       577       18.914130   37.151437    5.825934   x
            x    C       578       13.525252   37.151386    5.829954   x
            x    C       579       10.837920   37.151291    5.850798   x
            x    C       580       21.601817   37.151559    5.844934   x
            x    C       581        2.774003   37.151986    5.829328   x
            x    C       582       26.977724   37.152216    5.844976   x
            x    C       583        5.461466   37.151734    5.849848   x
            x    C       584       29.665944   37.151790    5.830485   x
            x    C       585       61.955047   37.152983    5.828911   x
            x    C       586       35.055159   37.152654    5.863488   x
            x    C       587       59.266899   37.152904    5.855824   x
            x    C       588       37.743777   37.153214    5.900746   x
            x    C       589       43.121214   37.153277    5.913261   x
            x    C       590       51.200771   37.153050    5.889219   x
            x    C       591       53.889853   37.153496    5.894044   x
            x    C       592       45.810079   37.152656    5.889172   x
            xxxxxxxxxxxxxxxxxxxxxxxxxxxxxxxxxxxxxxxxxxxxxxxxxxxxxxxxxxxx
 

LBFGS: continuation file name is "graphite.continuation"
 LBFGS: Restarting previous  geometry optimization.
 avg_mass=  20645.315679167277
 Enthalpy contributions:
                  total energy=  -3.25677488E+003 Eh
        diagonal pressure term=   0.00000000E+000 Eh
    off-diagonal pressure term=   0.00000000E+000 Eh
 LBFGS: finished iteration   0  with enthalpy= -3.256774875106E+003 Eh
  
 +-----------+-----------------+-----------------+------------+-----+ <-- LBFGS
 | Parameter |      value      |    tolerance    |    units   | OK? | <-- LBFGS
 +-----------+-----------------+-----------------+------------+-----+ <-- LBFGS
 |  dE/ion   |   0.000000E+000 |   1.000000E-006 |         Eh | No  | <-- LBFGS
 |  |F|max   |   1.834945E-003 |   2.000000E-003 |    Eh/Bohr | Yes | <-- LBFGS
 |  |dR|max  |   0.000000E+000 |   5.000000E-003 |       Bohr | No  | <-- LBFGS
 +-----------+-----------------+-----------------+------------+-----+ <-- LBFGS
  

================================================================================
 Starting LBFGS iteration    1 ...
================================================================================
 Writing xyz coordinates to file "graphite.xyz" ... done

 Writing continuation file "graphite.continuation" ...done
 Backing up NGWFs to file "graphite.tightbox_ngwfs.bfgs_back" ... done
 Backing up Hamiltonian to file "graphite.ham.bfgs_back" ... done
  
 +------------+-------------+-------------+-----------------+ <-- min LBFGS
 |    Step    |   lambda    |   F.delta   |    enthalpy     | <-- min LBFGS
 +------------+-------------+-------------+-----------------+ <-- min LBFGS
 |  previous  |    0.000000 |    0.000064 |    -3256.774875 | <-- min LBFGS
 +------------+-------------+-------------+-----------------+ <-- min LBFGS
  

--------------------------------------------------------------------------------
 LBFGS: starting iteration   1 with trial guess (lambda=    1.000000)
--------------------------------------------------------------------------------
 
                           -------------------------------
                                     Cell Contents
                           -------------------------------
 
            xxxxxxxxxxxxxxxxxxxxxxxxxxxxxxxxxxxxxxxxxxxxxxxxxxxxxxxxxxxx
            x  Element    Atom      Absolute co-ordinates of atoms     x
            x            Number        x           y           z       x
            x----------------------------------------------------------x
            x    Li        1       42.904036   19.481031   16.937983   x
            x    Li        2       54.034395   30.948845   16.965045   x
            x    Li        3       43.959255   25.786619   16.601424   x
            x    Li        4       52.137023   36.060443   16.818330   x
            x    Li        5       47.913024   32.794442   16.696481   x
            x    Li        6       47.946019   22.154895   16.841214   x
            x    Li        7       41.913187   31.368955   16.931871   x
            x    Li        8       36.429392   32.793866   17.019808   x
            x    Li        9       37.122375   21.104490   16.750514   x
            x    Li       10       40.464224   37.013084   16.730686   x
            x    Li       11       38.005283   27.087783   17.071119   x
            x    Li       12       46.887043    1.515009   17.185339   x
            x    Li       13       49.582184   27.443452   17.275871   x
            x    Li       14       41.627510   22.989164   20.522602   x
            x    Li       15       50.500936   31.481748   20.993693   x
            x    Li       16       49.551400   36.007564   21.294980   x
            x    Li       17       44.575754   34.917084   20.865888   x
            x    Li       18       52.016613    3.484113   20.982194   x
            x    Li       19       46.096904   24.870258   21.285677   x
            x    Li       20       39.534952   33.239834   21.299383   x
            x    Li       21       45.379073   29.988908   20.911354   x
            x    Li       22       54.642651   34.763592   21.891142   x
            x    Li       23       40.654452   28.093326   21.353982   x
            x    Li       24       39.383885   17.967274   21.752292   x
            x    Li       25       45.581918   19.755551   22.123439   x
            x    Li       26       35.696280   30.183437   22.242495   x
            x    Li       27       35.098643   36.423232   21.647483   x
            x    Li       28       50.974375   23.075908   22.263247   x
            x    Li       29       37.068578   24.092313   22.310327   x
            x    Li       30       54.349376   28.292735   22.667664   x
            x    Li       31       40.619434    0.540454   23.003828   x
            x    Li       32       46.438020    2.295104   23.268261   x
            x    Li       33       48.970734   27.941506   24.162783   x
            x    Li       34       47.287706   33.452206   25.293062   x
            x    Li       35       43.462453   26.720702   25.347635   x
            x    Li       36       42.420868   31.818272   25.298905   x
            x    Li       37       50.958848    0.274573   26.347195   x
            x    Li       38       41.386676   22.188052   25.940228   x
            x    Li       39       51.878729   31.874517   26.434997   x
            x    Li       40       47.029682   23.406368   26.773340   x
            x    Li       41       37.690575   34.092793   26.476033   x
            x    Li       42       43.890218   36.302728   27.699235   x
            x    Li       43       38.901620   27.866244   27.036572   x
            x    Li       44       46.295607   29.455844   28.137800   x
            x    Li       45       51.131010   26.904228   29.432941   x
            x    Li       46       43.309070   25.422934   30.938556   x
            x    Li       47       48.336905   33.756597   30.997487   x
            x    Li       48       42.048545   31.567797   30.816698   x
            x    C        49       18.905281    9.194318   12.955228   x
            x    C        50       13.522873    9.194267   12.953142   x
            x    C        51       14.864094   11.529265   12.953660   x
            x    C        52       17.563781   11.529090   12.954418   x
            x    C        53       51.220029   27.828100   13.135139   x
            x    C        54       45.806124   27.844392   12.932801   x
            x    C        55       47.159381   30.175922   12.959334   x
            x    C        56       49.857754   30.180755   13.070731   x
            x    C        57       14.864394    6.859073   12.955193   x
            x    C        58       17.563469    6.858900   12.955934   x
            x    C        59       21.585897   13.852895   12.952874   x
            x    C        60       18.899927   13.853122   12.932874   x
            x    C        61       13.528684   13.853307   12.933725   x
            x    C        62       14.864589   16.177321   12.955926   x
            x    C        63       17.563737   16.177270   12.955726   x
            x    C        64       47.155450   25.492954   13.070298   x
            x    C        65       49.873019   25.494159   13.145910   x
            x    C        66       53.906867   32.510051   12.952192   x
            x    C        67       51.210343   32.505448   13.009660   x
            x    C        68       45.809037   32.509743   12.904479   x
            x    C        69       47.153750   34.837893   12.942987   x
            x    C        70       49.861603   34.839632   12.968594   x
            x    C        71       14.864076    2.210194   12.960479   x
            x    C        72       17.562664    2.210835   12.960900   x
            x    C        73       22.926826    2.200854   12.959244   x
            x    C        74        9.500709    2.199253   12.961654   x
            x    C        75       63.311135    2.217727   12.958460   x
            x    C        76        6.801769    2.200390   12.962805   x
            x    C        77       30.985401    2.220793   12.956614   x
            x    C        78        1.436830    2.214461   12.962545   x
            x    C        79       25.623747    2.202790   12.959728   x
            x    C        80       33.683226    2.224637   12.961468   x
            x    C        81       39.059796    2.229532   13.013119   x
            x    C        82       55.251295    2.225508   12.941852   x
            x    C        83       57.947747    2.217403   12.942517   x
            x    C        84       47.154352    2.246562   12.966257   x
            x    C        85       41.767750    2.232329   13.029903   x
            x    C        86       49.864393    2.247530   12.963776   x
            x    C        87       18.898892    4.534948   12.936632   x
            x    C        88       13.528837    4.534618   12.936862   x
            x    C        89       10.842356    4.534979   12.958414   x
            x    C        90       26.966811    4.538311   12.958879   x
            x    C        91        5.458749    4.536503   12.962397   x
            x    C        92       21.585254    4.536032   12.956385   x
            x    C        93       59.287432    4.547644   12.952355   x
            x    C        94        2.773222    4.538075   12.942169   x
            x    C        95       35.028213    4.551317   12.948223   x
            x    C        96       61.973528    4.543186   12.937984   x
            x    C        97       29.652986    4.541541   12.935062   x
            x    C        98       43.116638    4.568308   13.016876   x
            x    C        99       51.205655    4.565447   12.917808   x
            x    C       100       37.713697    4.559851   12.993147   x
            x    C       101       53.898155    4.560836   12.929142   x
            x    C       102       45.810423    4.570374   12.985437   x
            x    C       103       22.927505    6.870802   12.957293   x
            x    C       104       63.308134    6.864332   12.963885   x
            x    C       105        6.801127    6.871769   12.960799   x
            x    C       106       30.991665    6.864064   12.954687   x
            x    C       107       39.066344    6.887037   12.986272   x
            x    C       108       57.941633    6.882606   12.951951   x
            x    C       109        1.436492    6.862712   12.962499   x
            x    C       110        9.500435    6.871049   12.958685   x
            x    C       111       25.626290    6.872186   12.959437   x
            x    C       112       33.692258    6.867236   12.962636   x
            x    C       113       55.240614    6.886853   12.941501   x
            x    C       114       47.156521    6.884346   12.971535   x
            x    C       115       41.770943    6.889519   12.994985   x
            x    C       116       49.862648    6.881732   12.941123   x
            x    C       117       51.210502    9.207815   12.941122   x
            x    C       118       59.276855    9.202449   12.937595   x
            x    C       119        2.778262    9.196822   12.960504   x
            x    C       120       26.962194    9.195295   12.937323   x
            x    C       121       35.039957    9.198521   12.964232   x
            x    C       122       43.116282    9.204163   12.953209   x
            x    C       123       53.898648    9.207083   12.922964   x
            x    C       124       61.965018    9.200284   12.963421   x
            x    C       125        5.465465    9.196148   12.939315   x
            x    C       126       21.592213    9.194442   12.935005   x
            x    C       127       29.650647    9.196447   12.956371   x
            x    C       128       37.727300    9.200565   12.949151   x
            x    C       129       45.806932    9.206527   12.964323   x
            x    C       130       10.835600    9.194731   12.934930   x
            x    C       131       47.159063   11.532747   12.945287   x
            x    C       132       55.237951   11.524663   12.953347   x
            x    C       133       63.306766   11.533101   12.964512   x
            x    C       134       30.993505   11.528185   12.959527   x
            x    C       135       39.070453   11.516506   12.961056   x
            x    C       136       49.861566   11.533643   12.942785   x
            x    C       137       57.938926   11.524142   12.956326   x
            x    C       138        1.436934   11.532366   12.962496   x
            x    C       139       33.694964   11.529158   12.962595   x
            x    C       140       41.772957   11.516465   12.959850   x
            x    C       141        6.801020   11.519499   12.959663   x
            x    C       142       22.927061   11.518010   12.955402   x
[...]
 C   344 -- C   352       -0.07      0.00      5.39700
 C   358 -- C   372       -0.07     -0.00      5.39709
 C   343 -- C   353       -0.07      0.00      5.39720
 C   546 -- C   576       -0.07      0.00      5.39727
 C   205 -- C   247       -0.06      0.00      5.39738
 C    83 -- C   113       -0.07     -0.00      5.39744
 C    64 -- C   189       -0.07      0.00      5.39748
 C    75 -- C   283       -0.07     -0.00      5.39754
 C   548 -- C   575       -0.07      0.00      5.39772
 C   357 -- C   374       -0.07     -0.00      5.39781
 C   549 -- C   572       -0.07     -0.00      5.39820
 Li    3 -- Li    6        0.09      0.00      5.39826
 C   479 -- C   510       -0.07     -0.00      5.39837
 C   173 -- C   206       -0.07     -0.00      5.39842
 C   481 -- C   515       -0.07     -0.00      5.39895
 C    70 -- C   287       -0.07      0.00      5.39945
 C    65 -- C   188       -0.07     -0.00      5.40016
 C   300 -- C   301       -0.07      0.00      5.40092
 C   146 -- C   153       -0.07      0.00      5.40104
 C    53 -- C    66       -0.07      0.00      5.40122
 C    80 -- C   280       -0.07      0.00      5.40151
 C   242 -- C   247       -0.07      0.00      5.40194
 C    67 -- C    68       -0.06     -0.00      5.40233
 C   166 -- C   192       -0.07     -0.00      5.40246
 C   158 -- C   189       -0.07     -0.00      5.40262
 C    98 -- C   100       -0.07     -0.00      5.40300
 C   204 -- C   205       -0.07      0.00      5.40322
 C    67 -- C   303       -0.07      0.00      5.40323
 C   117 -- C   129       -0.07     -0.00      5.40362
 C    56 -- C   259       -0.07      0.00      5.40484
 C   206 -- C   208       -0.06     -0.00      5.40486
 C   174 -- C   205       -0.07      0.00      5.40505
 C    67 -- C   243       -0.07      0.00      5.40505
 C   258 -- C   288       -0.06      0.00      5.40611
 C   259 -- C   286       -0.06     -0.00      5.40736
 C   172 -- C   173       -0.07     -0.00      5.40913
 C    56 -- C    64       -0.06     -0.00      5.41091
 C   261 -- C   284       -0.06     -0.00      5.41113
 C    70 -- C    84       -0.06      0.00      5.41242
 C   191 -- C   222       -0.06     -0.00      5.41306
 C   260 -- C   287       -0.06     -0.00      5.41324
 C   193 -- C   227       -0.06      0.00      5.41344
 C    55 -- C    65       -0.06      0.00      5.41457
 C   273 -- C   274       -0.06     -0.00      5.41632
 C    69 -- C    86       -0.06     -0.00      5.41650
 C   302 -- C   304       -0.06     -0.00      5.41671
 C    53 -- C    54       -0.06      0.00      5.41771
 Li   44 -- Li   48        0.15     -0.00      5.44742
 Li    1 -- C   206       -0.03     -0.00      5.44772
 Li   23 -- Li   26        0.13      0.00      5.45358
 Li    2 -- Li    4        0.11     -0.00      5.45436
 Li    7 -- Li   21        0.12     -0.00      5.45465
 Li   23 -- Li   29        0.13     -0.00      5.45721
 Li   16 -- Li   37        0.15     -0.00      5.46793
 Li   20 -- Li   27        0.17     -0.00      5.47138
 Li   14 -- Li   38        0.14     -0.00      5.48183
 Li    8 -- C   258       -0.02      0.00      5.48462
 Li    6 -- Li   19        0.14     -0.00      5.52681
 Li    7 -- C   247       -0.03      0.00      5.52707
 Li   36 -- Li   48        0.14      0.00      5.53601
 Li    4 -- C    66       -0.04      0.00      5.53937
 Li    8 -- C   255       -0.03     -0.00      5.54823
 Li    6 -- Li   13        0.07      0.00      5.55291
 Li   44 -- Li   47        0.16     -0.00      5.55348
 Li   20 -- Li   41        0.14      0.00      5.56120
 Li   17 -- Li   32        0.14     -0.00      5.56187
 Li   13 -- Li   15        0.13     -0.00      5.56544
 Li   36 -- Li   43        0.13     -0.00      5.56984
 Li   33 -- Li   40        0.12     -0.00      5.58123
 Li   30 -- Li   33        0.15     -0.00      5.59361
 Li   28 -- Li   33        0.14     -0.00      5.59436
 Li   21 -- Li   36        0.11     -0.00      5.59894
 Li   34 -- Li   37        0.14      0.00      5.60499
 Li   44 -- Li   45        0.15      0.00      5.61865
 Li   15 -- Li   39        0.11      0.00      5.62675
 Li    5 -- Li   13        0.08      0.00      5.63515
 Li   12 -- Li   16        0.14      0.00      5.63529
 Li   14 -- Li   24        0.17     -0.00      5.63608
 Li    7 -- Li   23        0.11     -0.00      5.64528
 Li   13 -- C    55       -0.03      0.00      5.65410
 Li    4 -- C    86       -0.02     -0.00      5.66052
 Li    5 -- Li   21        0.12      0.00      5.66190
 Li    7 -- Li    8        0.09      0.00      5.66658
=============================================================


============== Orbital energy and occupancy information for spin 1 =============

      Total number of orbitals:    2448
        Occupancy sum (kernel):    1136.726691961
   Occupancy sum (eigenvalues):    1136.726691961
                 HOMO-LUMO gap:       0.000506334 Eh
                 Mid-gap level:      -0.157664604 Eh

                        Orbital | Energy (Eh) | Occupancy
                            1    -1.926844327   1.0000000
                        .......   ...........   .........
                         1128    -0.170027841   0.9542214
                         1129    -0.168628462   0.9350970
                         1130    -0.168486297   0.9325545
                         1131    -0.167429526   0.9116292
                         1132    -0.164498601   0.8222597
                         1133    -0.160992956   0.6386987
                         1134    -0.159672580   0.5527656
                         1135    -0.159188704   0.5209377
                         1136    -0.158566837   0.4793665
                         1137    -0.157917771   0.4372174
                        ....... -- gap at 0K -- .........
                         1138    -0.157411437   0.4023274
                         1139    -0.157036815   0.3793298
                         1140    -0.155347501   0.2742010
                         1141    -0.154986713   0.2545649
                         1142    -0.154770368   0.2474427
                         1143    -0.152359178   0.1463364
                         1144    -0.152248983   0.1428251
                         1145    -0.151942396   0.1325547
                         1146    -0.151132149   0.1093523
                         1147    -0.150938219   0.1043079
                        .......   ...........   .........
                         2448     0.722007279   0.0000000

================================================================================

============== Orbital energy and occupancy information for spin 2 =============

      Total number of orbitals:    2448
        Occupancy sum (kernel):    1136.726691961
   Occupancy sum (eigenvalues):    1136.726691961
                 HOMO-LUMO gap:       0.000506334 Eh
                 Mid-gap level:      -0.157664604 Eh

                        Orbital | Energy (Eh) | Occupancy
                            1    -1.926844327   1.0000000
                        .......   ...........   .........
                         1128    -0.170027841   0.9542214
                         1129    -0.168628462   0.9350970
                         1130    -0.168486297   0.9325545
                         1131    -0.167429526   0.9116292
                         1132    -0.164498601   0.8222597
                         1133    -0.160992956   0.6386987
                         1134    -0.159672580   0.5527656
                         1135    -0.159188704   0.5209377
                         1136    -0.158566837   0.4793665
                         1137    -0.157917771   0.4372174
                        ....... -- gap at 0K -- .........
                         1138    -0.157411437   0.4023274
                         1139    -0.157036815   0.3793298
                         1140    -0.155347501   0.2742010
                         1141    -0.154986713   0.2545649
                         1142    -0.154770368   0.2474427
                         1143    -0.152359178   0.1463364
                         1144    -0.152248983   0.1428251
                         1145    -0.151942396   0.1325547
                         1146    -0.151132149   0.1093523
                         1147    -0.150938219   0.1043079
                        .......   ...........   .........
                         2448     0.722007279   0.0000000

================================================================================

===================== Writing canonical molecular orbitals =====================
    Spin 1
| Orbital  Energy (eV)  Norm     |
| HOMO-5   -4.47623470  1.000000 | 
| HOMO-4   -4.38084124  1.000000 | 
| HOMO-3   -4.34491200  1.000000 | 
| HOMO-2   -4.33174504  1.000000 | 
| HOMO-1   -4.31482320  1.000000 | 
| HOMO     -4.29716121  1.000000 | 
| LUMO     -4.28338316  1.000000 | 
| LUMO+1   -4.27318917  1.000000 | 
| LUMO+2   -4.22722060  1.000000 | 
| LUMO+3   -4.21740307  1.000000 | 
| LUMO+4   -4.21151601  1.000000 | 
| LUMO+5   -4.14590419  1.000000 | 
================================================================================

===================== Writing canonical molecular orbitals =====================
    Spin 2
| Orbital  Energy (eV)  Norm     |
| HOMO-5   -4.47623470  1.000000 | 
| HOMO-4   -4.38084124  1.000000 | 
| HOMO-3   -4.34491200  1.000000 | 
| HOMO-2   -4.33174504  1.000000 | 
| HOMO-1   -4.31482320  1.000000 | 
| HOMO     -4.29716121  1.000000 | 
| LUMO     -4.28338316  1.000000 | 
| LUMO+1   -4.27318917  1.000000 | 
| LUMO+2   -4.22722060  1.000000 | 
| LUMO+3   -4.21740307  1.000000 | 
| LUMO+4   -4.21151601  1.000000 | 
| LUMO+5   -4.14590419  1.000000 | 
================================================================================
 
=============== Density of States (DOS) calculation for UP spin ================
Writing "graphite_UP_DOS.txt" ... done
================================================================================
 
============== Density of States (DOS) calculation for DOWN spin ===============
Writing "graphite_DN_DOS.txt" ... done
================================================================================
 
Writing bands to file "graphite.val_bands" ... done

IS: Calculating electrolyte contribution to the atomic forces ...
================================================================================
 
***********************************************************
********** Summary of Forces (values in Eh/a) *************
*                                                         *
* ---------------------- Minimum ------------------------ *
* Atom:       385, |F|min =    0.00000844                 *
* Components:     Fx|min       Fy|min       Fz|min        *
*               0.00000322   0.00000301   0.00000720      *
*                                                         *
* ---------------------- Maximum ------------------------ *
* Atom:        32, |F|max =    0.00181706                 *
* Components:     Fx|max       Fy|max       Fz|max        *
*               0.00001040  -0.00076474  -0.00164827      *
*                                                         *
* ---------------- Root Mean Square Force --------------- *
*                  |F|rms =    0.00043109                 *
* Components:     Fx|rms       Fy|rms       Fz|rms        *
*               0.00030211   0.00027583   0.00013596      *
***********************************************************
 

                                                      hartree           kcal/mol
IS: NB: Energy of pure electrolyte:         -0.08487681032924         -53.261001

------------------------------ TIMING INFORMATION ------------------------------
AVERAGE TIME:    2302.322s on    128 proc(s)                                    
TOTAL TIME:      2302.326s on    128 proc(s)                                    
================= AVERAGE TIMINGS FROM ALL PROCS (CUMULATIVE) ==================
|| TAG                                    #calls    cpu time   %total  Gflops ||
|| linalg_invert_sym_matrix             :     2        0.00s   0.000%  ------ || (1 procs only)
|| onetep.F90 main loop imbalance       :     1        0.00s   0.000%  ------ ||
|| density_fftbox_interp_mult_imbal     :  2436        0.00s   0.000%  ------ ||
|| sparse_set_to_garbage                :    24        0.00s   0.000%  ------ ||
|| ewald_calculate_forces_realspace     :     2        0.01s   0.000%  ------ ||
|| vdwcorrection_calculate_forces       :     2        0.01s   0.000%  ------ ||
|| vdwcorrection_calculate_energy       :     2        0.02s   0.001%  ------ ||
|| onetep.F90 final imbalance           :     1        0.02s   0.001%  ------ ||
|| basis_extract_function_from_box      :   267        0.02s   0.001%  ------ ||
|| sparse_spam3toblacs_real_fast_imbal  :   208        0.04s   0.002%  ------ ||
|| pseudopotentials_core_density        :     2        0.04s   0.002%  ------ ||
|| pseudopotentials_local_on_grid       :     2        0.04s   0.002%  ------ ||
|| parallel_prepare_fd_halos_alloc      : 10830        0.06s   0.003%  ------ ||
|| pseudopotentials_nonlocal_mat        :     4        0.06s   0.003%  ------ ||
|| sparse_blacstospam3_real_fast_imbal  :   200        0.07s   0.003%  ------ ||
|| restart_hamiltonian_read             :     2        0.09s   0.004%  ------ ||
|| parallel_prepare_fd_halos_request    : 10830        0.10s   0.004%  ------ ||
|| restart_hamiltonian_write            :     3        0.16s   0.007%  ------ ||
|| sparse_spam3toblacs_real_fast_B2     : 26624        0.19s   0.008%  ------ ||
|| pseudo_make_structure_factor         :     2        0.28s   0.012%  ------ ||
|| parallel_prepare_fd_halos_satisfy    : 10830        0.49s   0.021%  ------ ||
|| ngwf_gradient_coeffs                 :     3        0.80s   0.035%  ------ ||
|| restart_kernel_write                 :     5        0.81s   0.035%  ------ ||
|| sparse_init                          :     2        0.96s   0.042%  ------ ||
|| pseudo_local_calculate_forces        :     2        1.08s   0.047%  ------ ||
|| smeared_ion_generate_potential_PBC   :     2        1.26s   0.055%  ------ ||
|| integrals_grad_spam3                 :     2        1.34s   0.058%  ------ ||
|| nonsc_forces_ngwfs_calc              :     2        1.34s   0.058%  ------ ||
|| density_init_guess_real              :     2        1.35s   0.059%  ------ ||
|| projectors_func_ovlp_box_spam3       :     4        1.36s   0.059%  ------ ||
|| fourier_filter_cell                  :    52        1.40s   0.061% 207.108 ||
|| ewald_calculate_energy               :     2        1.45s   0.063%  ------ ||
|| pseudo_nlcc_calculate_forces         :     2        1.53s   0.067%  ------ ||
|| sparse_trace                         :   788        1.79s   0.078%  ------ ||
|| sparse_embed_hotelling_invert_embed  :     4        1.90s   0.082%  ------ ||
|| projectors_init_fftbox_recip         :    22        2.14s   0.093%  ------ ||
|| projectors_func_grad_ovlp_box_spam3  :     6        2.15s   0.093%  ------ ||
|| energy_and_force_init_cell           :     1        2.39s   0.104%  ------ ||
|| pseudo_nl_calculate_forces           :     2        2.47s   0.107%  ------ ||
|| fourier_apply_box_pair               :   288        2.60s   0.113%  1.792k ||
|| restart_ngwfs_tightbox_input         :     2        2.73s   0.118%  ------ ||
|| basis_copy_function_to_box           :  3710        2.98s   0.129%  ------ ||
|| function_ops_brappd_ketppd_spam3     :     6        3.14s   0.136%  ------ ||
|| boltzmann_init_steric_pot            :     2        3.83s   0.166%  ------ ||
|| parallel_prepare_fd_halos_comms_imbal: 10830        4.22s   0.183%  ------ ||
|| ewald_calculate_forces_recipspace    :     2        4.31s   0.187%  ------ ||
|| eigenstates_calculate                :     1        4.32s   0.188%  ------ ||
|| ewald_calculate_forces               :     2        4.33s   0.188%  ------ ||
|| parallel_prepare_fd_halos_clear      : 10830        4.34s   0.189%  ------ ||
|| integrals_kinetic_spam3              :     4        4.73s   0.205%  ------ ||
|| fourier_interpolate_cell             :   116        5.85s   0.254% 110.407 ||
|| parallel_prepare_fd_halos_comms_wait : 10830        7.27s   0.316%  ------ ||
|| fourier_apply_cell_backward          :   498        7.96s   0.346% 175.986 ||
|| sparse_spam3toblacs_real_fast_B1     : 26624        8.87s   0.385%  ------ ||
|| sparse_product                       :   539        9.42s   0.409%  ------ ||
|| sparse_spam3toblacs_real_fast        :   208        9.49s   0.412%  ------ ||
|| projectors_gradient_batch            :    12        9.55s   0.415%  ------ ||
|| basis_dot_function_with_box          : 627.3k      11.55s   0.502%  ------ ||
|| cell_grid_extract_box_real           :  1138       14.18s   0.616%  ------ ||
|| sparse_blacstospam3_real_fast        :   200       16.25s   0.706%  ------ ||
|| parallel_prepare_fd_halos            : 10830       16.55s   0.719%  ------ ||
|| restart_ngwfs_tightbox_output        :     2       17.10s   0.743%  ------ ||
|| xc_energy_potential                  :    60       17.59s   0.764%  ------ ||
|| properties_calculate                 :     1       31.62s   1.374%  ------ ||
|| cell_grid_deposit_box_real           :  2960       33.01s   1.434%  ------ ||
|| basis_add_function_to_box            : 1.804M      34.49s   1.498%  ------ ||
|| fourier_apply_cell_forward           :   490       34.93s   1.517%  39.445 ||
|| dense_eigensolve                     :   100       37.11s   1.612%  ------ ||
|| ngwf_gradient_build_batch            :    12       41.59s   1.806%  ------ ||
|| edft_diag_ngwf_ham                   :    98       45.15s   1.961%  ------ ||
|| finite_difference_derivative         : 10830       50.81s   2.207%  ------ ||
|| integrals_locpot_mat_els_batch       :    92       53.58s   2.327%  ------ ||
|| ngwf_gradient_batch                  :    12       66.78s   2.900%  ------ ||
|| edft_apply_smearing_operator         :    49       69.26s   3.008%  ------ ||
|| ngwf_gradient_lnv                    :     3       69.54s   3.020%  ------ ||
|| hamiltonian_energy_components        :     2       75.66s   3.286%  ------ ||
|| density_batch_row_sums               :   232      100.60s   4.370%  ------ ||
|| implicit_solvent_boltzmann_forces    :     2      104.43s   4.536%  ------ ||
|| density_fftbox_deposit_to_cell       :  2436      117.29s   5.094%  ------ ||
|| potential_apply_to_ngwf_batch        :    92      184.39s   8.009%  ------ ||
|| implicit_solvent_soft_sphere_forces  :     2      217.75s   9.458%  ------ ||
|| smeared_ion_force_correction         :     4      231.38s  10.050%  ------ ||
|| fourier_apply_box                    :  7250      238.08s  10.341%  2.354k ||
|| integrals_locpot_dbl_grid            :    46      238.26s  10.349%  ------ ||
|| dl_mg_solver_calls                   :    58      266.61s  11.580%  ------ ||
|| multigrid_calculate_hartree          :    58      273.25s  11.868%  ------ ||
|| density_fftbox_interpolate_multiply  :  2436      276.28s  12.000%  ------ ||
|| density_batch_interp_deposit         :   232      525.41s  22.821%  ------ ||
|| forces_calculate                     :     2      586.51s  25.475%  ------ ||
|| density_on_dbl_grid                  :   116      643.52s  27.951%  ------ ||
|| hamiltonian_lhxc_calculate           :    54      911.36s  39.584%  ------ ||
|| edft_calculate                       :     3     1118.49s  48.581%  ------ ||
|| ngwf_cg_optimise                     :     2     1307.24s  56.779%  ------ ||
|| energy_and_forces                    :     2     2293.81s  99.630%  ------ ||
|| total_time                           :     1     2302.32s 100.000%  ------ ||
================================================================================
Overhead of generating timer report: 
- 0 ms averaging over threads,
- 11 ms ensuring consistency across MPI ranks,
- 1 ms printing in order.

Job completed: 13-12-2023 12:09 (+0000)

