==================================================================================
It's Thu Jun 27 13:17:41 BST 2024.
*** Starting onetep_launcher (node red6089, PIDs 71510 71511 71512 71513 71514 71515 71516 71517 71518 71519 71520 71521 71522 71523 71524 71525 71526 71527 71528 71529 71530 71531 71532 71533 71534 71535 71536 71537 71538 71539 71540 71541)...
    - ONETEP arguments: graphite.dat
    - Current directory: /home/ab2g19/127/0.1
    - Launcher executable directory: /iridisfs/home/ab2g19/onetep/utils
    - (-e) ONETEP executable specified through command-line: /home/ab2g19/onetep/bin/onetep.iridis6.ifort24.omp.scalapack
      ... trying /home/ab2g19/onetep/bin/onetep.iridis6.ifort24.omp.scalapack
          -> looks OK
*** Setting up environment...
    - (-s) Process stack size: unlimited
    - (-t) OMP_NUM_THREADS: 6
    - (-o) OMP_STACKSIZE: 64M
    - (-c) Maximum core file size: 2048000
    - (-r) resmon_interval: 5
    - (-d) decfort_dump_flag: n
    - (-m) I_MPI_OFA_TRANSLATION_CACHE: 0
    - (-m) I_MPI_DAPL_TRANSLATION_CACHE: 0
    - (-m) I_MPI_DAPL_UD_TRANSLATION_CACHE: 0
*** Starting ONETEP...
    - /home/ab2g19/onetep/bin/onetep.iridis6.ifort24.omp.scalapack graphite.dat
=================================================================================
_________________________________________________________________________________
MPI startup(): I_MPI_DAPL_UD_TRANSLATION_CACHE variable has been removed from the product, its value is ignored

MPI startup(): I_MPI_OFA_TRANSLATION_CACHE variable has been removed from the product, its value is ignored

MPI startup(): I_MPI_DAPL_TRANSLATION_CACHE variable has been removed from the product, its value is ignored

 +---------------------------------------------------------------+
 |                                                               |
 |        ####### #     # ####### ####### ####### ######         |
 |        #     # ##    # #          #    #       #     #        |
 |        #     # # #   # #          #    #       #     #        |
 |        #     # #  #  # #####      #    #####   ######         |
 |        #     # #   # # #          #    #       #              |
 |        #     # #    ## #          #    #       #              |
 |        ####### #     # #######    #    ####### #              |
 |                                                               |
 |        Linear-Scaling Ab Initio Total Energy Program          |
 |                                                               |
 |          Release for academic collaborators of ODG            |
 |                                             Version 7.1.37    |
 | Remote: https://github.com/onetep-devel/onetep.git            |
 | Local branch: master                                          |
 | Commit ID: 8b9443aa76c73904727045853ae6caf51c73aeb2           |
 | Date: Fri Jun 14 15:36:49 2024 +0200                          |
 | Working tree clean                                            |
 |                                                               |
 +---------------------------------------------------------------+
 |                                                               |
 |  Authors:                                                     |
 |  Jacek Dziedzic, Peter D. Haynes, Nicholas D. M. Hine,        |
 |  Arash A. Mostofi, Mike C. Payne and Chris-Kriton Skylaris    |
 |                                                               |
 |  Contributors:                                                |
 |  J. Aarons, L. Andrinopoulos, P. W. Avraam, R. A. Bell,       |
 |  A. Bhandari, G. A. Bramley, R. J. Charlton, S. J. Clark,     |
 |  R. J. Clements, G. C. Constantinescu, F. Corsetti,           |
 |  N. Corsini, O. Dieguez, S. M. M. Dubois, K. K. B. Duff,      |
 |  J. M. Escartin, M. Escobar Azor, A. Greco,                   |
 |  H. Helal, Q. O. Hill, L. P. Lee, J.-H. Li,                   |
 |  T. Li, E. B. Linscott, G. Moynihan, D. D. O`Regan,           |
 |  O. K. Okan, M. J. S. Phipps, C. J. Pickard,                  |
 |  J. C. A. Prentice, M. I. J. Probert, L. E. Ratcliff,         |
 |  M. Robinson, A. Ruiz Serrano, M. dos Santos Dias,            |
 |  J. S. Spencer, E. W. Tait, G. Teobaldi, D. Turban,           |
 |  V. Vitale, K. A. Wilkinson, C. Weber, J. C. Womack,          |
 |  Chengcheng Xiao, N. Yeung and T. J. Zuehlsdorff              |
 |                                                               |
 |                                   Copyright (c) 2004-2024     |
 |                                                               |
 |  Please cite:                                                 |
 |  "The ONETEP linear-scaling density functional theory program"|
 |   J. Chem. Phys. 152(17) 174111 (2020)                        |
 |                                                               |
 |          in all publications arising from your use of ONETEP. |
 |                                                               |
 +---------------------------------------------------------------+
 |                                                               |
 |   ONETEP is based on developments described in the following  |
 |   publications:                                               |
 |                                                               |
 |  "Nonorthogonal generalized Wannier function pseudopotential  |
 |   plane-wave method".                                         |
 |   C.-K. Skylaris, A. A. Mostofi, P. D. Haynes, O. Dieguez,    |
 |   M. C. Payne.                                                |
 |   Phys. Rev. B 66 035119 (2002).                              |
 |                                                               |
 |  "Preconditioned iterative minimization for linear-scaling    |
 |   electronic structure calculations".                         |
 |   A. A. Mostofi, P. D. Haynes, C.-K. Skylaris, M. C. Payne.   |
 |   J. Chem. Phys. 119(17), pp.8842-8848 (2003).                |
 |                                                               |
 |  "Total-energy calculations on a real space grid with         |
 |   localized functions and a plane-wave basis".                |
 |   A. A. Mostofi, C.-K. Skylaris, P. D. Haynes, M. C. Payne.   |
 |   Comput. Phys. Commun. 147, pp.788-802 (2002).               |
 |                                                               |
 |  "Accurate kinetic energy evaluation in electronic structure  |
 |   calculations with localized functions on real space grids"  |
 |   C.-K. Skylaris, A. A. Mostofi, P. D. Haynes, C. J. Pickard, |
 |   M. C. Payne.                                                |
 |   Comput. Phys. Commun. 140, pp.315-322 (2001).               |
 |                                                               |
 |  "Accurate ionic forces and geometry optimization in linear-  |
 |   scaling density-functional theory with local orbitals"      |
 |   N. D. M. Hine, M. Robinson, P. D. Haynes, C.-K. Skylaris,   |
 |   M. C. Payne, and A. A. Mostofi.                             |
 |   Phys. Rev. B 83 195102 (2011).                              |
 |                                                               |
 +---------------------------------------------------------------+

Job started: 27-06-2024 13:17 (+0100)
 
Reading parameters from file "graphite.dat" ...... done

If your calculation crashes here, before "Checking processes and threads..."
is displayed, then your stack size is insufficient.
If so, use "ulimit -s unlimited" at runtime.
You can disable this check with "check_stack_size F".

Checking processes and threads...
   Determining the default number of threads...
      No default threads set at compilation time: defaulting to 1.
      OpenMP library call suggests 6 threads.
      Hybrid MPI-OpenMP compilation detected.
      Number of MPI processes > 1.
      OMP_NUM_THREADS environment variable present and
      its value matches the one obtained from the OpenMP library call.
      Using this value as default.
      Default threads: 6
      Default applies to threads_max and threads_num_fftboxes.
      Settings in the input file override this default.
   ... done

   Running with 256 MPI processes.
   There are 32 MPI processes running on the same node as the root process.
   Each MPI process is using: 
               1 threads for simulation cell FFTs.
               1 threads for threaded FFT box operations.
               6 threads for loops over batched FFT box operations.
               6 threads in other parallel regions.
   MPI Interface: S1 (use mpi_f08) (-DMPI -DUSE_MPI_F08).
   MPI_ASYNC_PROTECTS_NONBLOCKING: Yes. MPI_SUBARRAYS_SUPPORTED: Yes.
   FFTW Interface: OMP-capable and MODERN. (-DUSE_MODERN_FFTW specified).
   GPU Interface: None.
... done

Basic input checks...
Resetting ngwf_cg_rotate to TRUE for EDFT calculations

WARNING: The number of FFT boxes in a batch is not a multiple of the number of
OpenMP threads. Consider changing fftbox_batch_size.
... done

Reading geometry and species blocks from file "graphite.dat" ...
  Reading POSITIONS geometry from str.xyz

  <species_atomic_set> block not found: NGWF initialisation set to SOLVE
IS: Dielectric excluded regions:
    - NONE.
IS: Assigning soft sphere radii for soft sphere solvation...
IS: No soft sphere radii specified. Default Alvarez radii used for all atoms.

----------- SOFT SPHERE RADII -----------
Li  5.333
C   4.442
-----------------------------------------

    
  Number of PPD points along a3 set to 1.  This is 
  the default value, it may have been provided also in the input file.
... done


--------------------------------------------------------------------------------
---------------------------------- INPUT FILE ----------------------------------
--------------------------------------------------------------------------------

task geometryoptimization                                                       
geom_method LBFGS                                                               
geom_continuation T                                                             
write_xyz T                                                                     
edft_grand_canonical T                                                          
edft_reference_potential  -4.42 eV                                              
edft_electrode_potential 0.10 V                                                 
edft_nelec_thres 0.000001                                                       
is_dielectric_function soft_sphere                                              
is_implicit_solvent T                                                           
is_smeared_ion_rep T                                                            
is_include_apolar T                                                             
is_solvation_properties T                                                       
is_pbe                    full                                                  
is_pbe_temperature        298.15                                                
is_pbe_bc_debye_screening T                                                     
is_pbe_neutralisation_scheme counterions_auto                                   
is_pbe_energy_tolerance 1E+50                                                   
is_bc_coarseness 5                                                              
is_bc_threshold 1E-9                                                            
is_bulk_permittivity 90.7                                                       
is_solvent_surf_tension 0.0506 N/m                                              
%block sol_ions                                                                 
Li  +1 1.0                                                                      
PF6 -1 1.0                                                                      
%endblock sol_ions                                                              
is_steric_pot_type M                                                            
is_hc_steric_dens_isovalue  0.001                                               
is_hc_steric_smearing         0.4 bohr                                          
is_steric_write T                                                               
%block species_solvent_radius                                                   
Li 3.0                                                                          
C 3.0                                                                           
%endblock species_solvent_radius                                                
multigrid_bc:   P P P                                                           
ion_ion_bc:     P P P                                                           
pspot_bc:       P P P                                                           
smeared_ion_bc: P P P                                                           
mg_max_iters_vcycle 500                                                         
mg_vcyc_smoother_iter_pre 4                                                     
mg_vcyc_smoother_iter_post 4                                                    
mg_max_res_ratio 1000.0                                                         
mg_max_iters_newton 300                                                         
edft                    : T                                                     
edft_smearing_width     : 0.1 eV                                                
spin                    : 0.0                                                   
edft_spin_fix           : 2                                                     
spin_polarized          : T                                                     
cutoff_energy :  1000 eV                                                        
kernel_cutoff : 1000 bohr                                                       
xc_functional PBE                                                               
dispersion 4                                                                    
output_detail VERBOSE                                                           
do_properties T                                                                 
cube_format F                                                                   
dx_format T                                                                     
write_denskern T                                                                
write_tightbox_ngwfs T                                                          
write_hamiltonian T                                                             
%block species                                                                  
Li Li 3  5  8.0                                                                 
C  C  6  4  8.0                                                                 
%endblock species                                                               
%block species_pot                                                              
Li '/home/ab2g19/pseudo/Li.usp'                                                 
C  '/home/ab2g19/pseudo/C.usp'                                                  
%endblock species_pot                                                           
%BLOCK LATTICE_CART                                                             
ang                                                                             
34.1692060000000026    0.0000000000000000    0.0000000000000000                 
0.0000000000000000   39.4551999999999978    0.0000000000000000                  
0.0000000000000000    0.0000000000000000  100.0000000000000000                  
%ENDBLOCK LATTICE_CART                                                          
positions_xyz_file str.xyz                                                      
     Hash =  -000000056011186982384414
edft_maxit 30                                                                   

--------------------------------------------------------------------------------
-------------------------------- END INPUT FILE --------------------------------
--------------------------------------------------------------------------------


 
 ESDF WARNING(1
 ): "ispbeenergytolerance" (esdf_physical) has no units. Assume "hartree".
<<<<<<<<<<<<<<<<<<<<<<<<<<<<<<<<< Full system >>>>>>>>>>>>>>>>>>>>>>>>>>>>>>>>>>
<<<<<<<<<<<<<<<<<<<<<<<<< Pseudopotential information >>>>>>>>>>>>>>>>>>>>>>>>>>
File: /home/ab2g19/pseudo/Li.usp [ 2001 points up to Gmax=  52.9 (1/bohr)]
  Atomic number:  3;  ionic charge:  3.000000
    Shell 1: l = 0; rc = 1.19 bohr
    Shell 2: l = 0; rc = 1.25 bohr
File: /home/ab2g19/pseudo/C.usp [ 2001 points up to Gmax=  52.9 (1/bohr)]
  Atomic number:  6;  ionic charge:  4.000000
    Shell 1: l = 0; rc = 1.19 bohr
  Core charge supplied for Nonlinear Core Corrections
<<<<<<<<<<<<<<<<<<<<<<<<<<<<<<<<<<<<<<<<>>>>>>>>>>>>>>>>>>>>>>>>>>>>>>>>>>>>>>>>

-------------------------- Atom counting information ---------------------------
Symbol    Natoms    Nngwfs    Nprojs
  Li       191       955       382
  C       1024      4096      1024
.......   ......    ......    ......
Totals:   1215      5051      1406
--------------------------------------------------------------------------------

=============================== PSINC grid sizes ===============================
                      Simulation cell:  143 x 165 x 416
                              FFT-box:  117 x 117 x 117
                                  PPD:   11 x   5 x   1
Grid space d1=  0.451541549484a0 (KE cutoff=  37.25706Eh =1013.81615eV)
Grid space d2=  0.451875894456a0 (KE cutoff=  37.20195Eh =1012.31645eV)
Grid space d3=  0.454261090044a0 (KE cutoff=  36.81230Eh =1001.71359eV)
================================================================================
  
WARNING in cell_grid_distribute:
Average of less than one 23-slab per proc, so workload cannot be
equally balanced between procs.

********************* Fourier parallelisation information **********************
       Coarse grid (whole simulation cell) dimensions:    143   165   416
          Real-space ('12') slabs/proc (min max mean):      1     2     1
         Recip-space ('23') slabs/proc (min max mean):      0     1     0
********************************************************************************
  
WARNING in cell_grid_distribute:
Average of less than one 23-slab per proc, so workload cannot be
equally balanced between procs.

********************* Fourier parallelisation information **********************
       Double grid (whole simulation cell) dimensions:    286   330   832
          Real-space ('12') slabs/proc (min max mean):      3     4     3
         Recip-space ('23') slabs/proc (min max mean):      0     1     0
********************************************************************************
  
WARNING in cell_grid_distribute:
Average of less than one 23-slab per proc, so workload cannot be
equally balanced between procs.

********************* Fourier parallelisation information **********************
         Fine grid (whole simulation cell) dimensions:    288   336   832
          Real-space ('12') slabs/proc (min max mean):      3     4     3
         Recip-space ('23') slabs/proc (min max mean):      0     1     0
         Grid scale modified to satisfy multigrid solver grid constraints
         Grid scale values after modifification:         2.01  2.04  2.00
********************************************************************************
ONETEP fine grid is 288 x 336 x 832 gridpoints, 64.5704 x 74.5595 x 188.9726 bohr.
FD multigrid is     288 x 336 x 832 gridpoints, 64.5704 x 74.5595 x 188.9726 bohr.


Atom SCF Calculation for Li : Z (AE atom) =   3 : Z (PS atom) =   3
Config String:
Orbitals (num,occ):  3     2.00 1.00 0.00
Orbitals   (num,l):  3        0    0    1
Real-space Grid (nr,dr,rmax): 1343    0.0059612519    8.0000000000
Spherical Bessel Basis (nsws,lmax,cutoff):   37    1  220.4959463253
Confining potential (l,width,scale):  0    3.0000000000  100.0000000000
Confining potential (l,width,scale):  1    3.0000000000  100.0000000000
  1         -3.7050169094   -5.2301177776    2.5388568852   -0.9989538802
  2         -6.0510920273   -4.2679357854    3.2724001845   -1.3422946715
  3         -6.7975021434   -3.8722499620    3.6648237887   -1.5325279919
  4         -7.0147472228   -3.7673066376    3.7864613280   -1.5966989055
  5         -7.0774132854   -3.7446783348    3.8157063634   -1.6161454686
  6         -7.0951992563   -3.7420177453    3.8204515040   -1.6217593843
  7         -7.1001226024   -3.7430426481    3.8200527077   -1.6233132433
  8         -7.1014239576   -3.7441529610    3.8191274553   -1.6237164860
  9         -7.1017352306   -3.7448434699    3.8184905098   -1.6238077213
 10         -7.1017916056   -3.7452114113    3.8181373932   -1.6238209669
 11         -7.1017908912   -3.7453946820    3.8179578223   -1.6238181917
 12         -7.1017822190   -3.7454828903    3.8178702968   -1.6238141227
 13         -7.1017768840   -3.7455162316    3.8178369316   -1.6238119017
 14         -7.1017732849   -3.7455353767    3.8178176959   -1.6238104459
 15         -7.1017709700   -3.7455463461    3.8178066371   -1.6238095253
 16         -7.1017695244   -3.7455526225    3.8178002910   -1.6238089565
 17         -7.1017686390   -3.7455562110    3.8177966534   -1.6238086105
 18         -7.1017681040   -3.7455582619    3.8177945697   -1.6238084022
 19         -7.1017677838   -3.7455594341    3.8177933764   -1.6238082778
 20         -7.1017675934   -3.7455601042    3.8177926929   -1.6238082039
 21         -7.1017674808   -3.7455604874    3.8177923014   -1.6238081602
 22         -7.1017674145   -3.7455607066    3.8177920771   -1.6238081344
Atom SCF converged after  22 iterations to a total energy of     -7.10176741

Atom SCF Calculation for C  : Z (AE atom) =   6 : Z (PS atom) =   4
Config String:
Orbitals (num,occ):  2     2.00 2.00
Orbitals   (num,l):  2        0    1
Real-space Grid (nr,dr,rmax): 1343    0.0059612519    8.0000000000
Spherical Bessel Basis (nsws,lmax,cutoff):   37    1  220.4959463253
Confining potential (l,width,scale):  0    3.0000000000  100.0000000000
Confining potential (l,width,scale):  1    3.0000000000  100.0000000000
  1         -5.8177092822   -1.2555419264    4.5135233515   -1.7471920893
  2         -5.6032261188   -1.3440047989    4.4246587726   -1.7090653419
  3         -5.5936068668   -1.3561735374    4.4140765627   -1.7034094417
  4         -5.5958505747   -1.3587284552    4.4121342699   -1.7022848669
  5         -5.5969687665   -1.3601698222    4.4109982405   -1.7017057890
  6         -5.5975400979   -1.3609792837    4.4103423276   -1.7013975981
  7         -5.5978435204   -1.3614297943    4.4099696476   -1.7012314972
  8         -5.5980096069   -1.3616786122    4.4097605138   -1.7011416075
  9         -5.5981021113   -1.3618152853    4.4096441572   -1.7010929151
 10         -5.5981539939   -1.3618900852    4.4095797860   -1.7010665406
 11         -5.5981831160   -1.3619309228    4.4095443105   -1.7010522599
 12         -5.5981994243   -1.3619531807    4.4095248124   -1.7010445305
 13         -5.5982085235   -1.3619652972    4.4095141175   -1.7010403487
 14         -5.5982135796   -1.3619718867    4.4095082606   -1.7010380870
 15         -5.5982163780   -1.3619754676    4.4095050573   -1.7010368642
 16         -5.5982179208   -1.3619774123    4.4095033073   -1.7010362032
 17         -5.5982187685   -1.3619784678    4.4095023522   -1.7010358460
 18         -5.5982192328   -1.3619790404    4.4095018314   -1.7010356530
 19         -5.5982194864   -1.3619793509    4.4095015476   -1.7010355488
 20         -5.5982196245   -1.3619795192    4.4095013931   -1.7010354925
 21         -5.5982196995   -1.3619796104    4.4095013090   -1.7010354621
Atom SCF converged after  21 iterations to a total energy of     -5.59821970

BC: Task: GEOMETRYOPTIMIZATION
BC: +++++++++++++++ Summary of boundary conditions ++++++++++++++
BC: |       Component       |     Keyword     |   Periodicity   |
BC: |                       |                 |     X  Y  Z [1] |
BC: |-----------------------------------------------------------|
BC: | Ion-ion               | ion_ion_bc [2]  |     P  P  P     |
BC: | Local pseudopotential | pspot_bc [3]    |     P  P  P     |
BC: | Multigrid solver      | multigrid_bc    |     P  P  P     |
BC: | Smeared ions          | smeared_ion_bc  |     P  P  P     |
BC: | Van der Waals         | vdw_bc          |     P  P  P     |
BC: +++++++++++++++++++++++++++++++++++++++++++++++++++++++++++++
BC: P: Periodic, O: Open.
BC: [1] Not strictly along X, Y, Z but rather along lattice vectors A1, A2, A3.
BC: [2] Also affected by: pbc_correction_cutoff, cutoff_coulomb_type,
BC:     is_smeared_ion_rep, is_implicit_solvent, openbc_ion_ion.
BC: [3] Also affected by: is_smeared_ion_rep, is_implicit_solvent, openbc_pspot.

WARNING: The number of FFT boxes in a batch is not a multiple of the number of
OpenMP threads. Consider changing fftbox_batch_size.

================================================================================
<<<<<<<<<<<<<<<< Resuming previous ONETEP Geometry Optimisation >>>>>>>>>>>>>>>>
================================================================================

 Geometry Optimisation: output file is "graphite.geom"
 
 Reading continuation file "graphite.continuation" ...done
 Geometry Optimisation: read_tightbox_ngwfs parameter over-ridden to TRUE
 Geometry Optimisation: read_hamiltonian parameter over-ridden to T
 
                           -------------------------------
                                     Cell Contents
                           -------------------------------
 
            xxxxxxxxxxxxxxxxxxxxxxxxxxxxxxxxxxxxxxxxxxxxxxxxxxxxxxxxxxxx
            x  Element    Atom      Absolute co-ordinates of atoms     x
            x            Number        x           y           z       x
            x----------------------------------------------------------x
            x    Li        1        4.095428    2.216978    8.961591   x
            x    Li        2        4.095941   11.507514    8.962385   x
            x    Li        3        4.096888   20.812112    9.026823   x
            x    Li        4        4.091232   30.181863    9.124390   x
            x    Li        5        4.088583   39.454751    9.150114   x
            x    Li        6        4.092243   48.801316    9.110540   x
            x    Li        7        4.094478   58.152100    9.059425   x
            x    Li        8        4.092376   67.428597    9.002600   x
            x    Li        9       20.255169    2.215413    9.062179   x
            x    Li       10       20.256699   11.501901    9.071084   x
            x    Li       11       20.257708   20.805945    9.101471   x
            x    Li       12       20.268663   30.153545    9.068355   x
            x    Li       13       20.259734   39.461151    9.087993   x
            x    Li       14       20.237253   48.822993    9.114581   x
            x    Li       15       20.242570   58.178789    9.147451   x
            x    Li       16       20.261144   67.424633    9.117320   x
            x    Li       17       36.409694    2.215291    9.154463   x
            x    Li       18       36.413193   11.507673    9.173579   x
            x    Li       19       36.453566   20.784551    9.122204   x
            x    Li       20       36.443382   30.147974    8.952598   x
            x    Li       21       36.452656   39.465839    8.892898   x
            x    Li       22       36.450195   48.812101    9.076804   x
            x    Li       23       36.396082   58.185108    9.179674   x
            x    Li       24       36.408691   67.424320    9.172936   x
            x    Li       25       52.534065    2.215167    9.014859   x
            x    Li       26       52.530413   11.502983    9.050371   x
            x    Li       27       52.521217   20.820377    9.108296   x
            x    Li       28       52.530054   30.175649    9.092192   x
            x    Li       29       52.547906   39.453218    9.044830   x
            x    Li       30       52.532421   48.806193    9.046810   x
            x    Li       31       52.531479   58.148632    9.067286   x
            x    Li       32       52.529418   67.426990    9.052321   x
            x    Li       33       12.171385    6.837780    8.985321   x
            x    Li       34       12.168875   16.184096    9.016354   x
            x    Li       35       12.161144   25.460533    9.073704   x
            x    Li       36       12.140144   34.805851    9.097500   x
            x    Li       37       12.141202   44.168835    9.103073   x
            x    Li       38       12.162608   53.460463    9.117395   x
            x    Li       39       12.176301   62.795407    9.085130   x
            x    Li       40       12.172106   72.125986    9.018933   x
            x    Li       41       28.347650    6.841968    9.138495   x
            x    Li       42       28.341846   16.166930    9.144695   x
            x    Li       43       28.297680   25.457744    9.078873   x
            x    Li       44       28.291389   34.813624    8.955497   x
            x    Li       45       28.299250   44.130115    9.005980   x
            x    Li       46       28.317901   53.506961    9.103860   x
            x    Li       47       28.348075   62.814104    9.183002   x
            x    Li       48       28.346304   72.108927    9.145363   x
            x    Li       49       44.463568    6.841548    9.112497   x
            x    Li       50       44.461416   16.189967    9.148725   x
            x    Li       51       44.506053   25.455934    9.086053   x
            x    Li       52       44.519421   34.788746    8.969286   x
            x    Li       53       44.496111   44.200697    9.005198   x
            x    Li       54       44.517661   53.448587    9.069535   x
            x    Li       55       44.473216   62.805376    9.124943   x
            x    Li       56       44.466729   72.112398    9.106656   x
            x    Li       57       60.592768    6.837592    8.966849   x
            x    Li       58       60.596971   16.184416    9.014572   x
            x    Li       59       60.590547   25.480195    9.104997   x
            x    Li       60       60.594359   34.812343    9.146014   x
            x    Li       61       60.593683   44.159288    9.114271   x
            x    Li       62       60.590291   53.443170    9.069600   x
            x    Li       63       60.593245   62.797252    9.027497   x
            x    Li       64       60.592711   72.121099    8.980926   x
            x    C        65       33.694709   39.479044    5.398375   x
            x    C        66       35.042897   41.816370    5.421207   x
            x    C        67       35.043076   37.141687    5.379378   x
            x    C        68       39.090686   39.479260    5.389825   x
            x    C        69       37.741586   41.816409    5.413271   x
            x    C        70       37.741596   37.141321    5.377122   x
            x    C        71       31.009866   39.478947    5.445004   x
            x    C        72       41.774803   39.478903    5.445283   x
            x    C        73       33.701615   44.140252    5.504567   x
            x    C        74       39.083121   44.140773    5.486079   x
            x    C        75       33.700894   34.815858    5.418566   x
            x    C        76       39.083708   34.815620    5.418377   x
            x    C        77       29.668256   41.804543    5.464784   x
            x    C        78       31.016624   44.140746    5.494974   x
            x    C        79       29.667590   37.153120    5.421776   x
            x    C        80       43.116248   41.804431    5.455386   x
            x    C        81       41.767409   44.140134    5.466503   x
            x    C        82       31.015819   34.815842    5.414989   x
            x    C        83       43.116626   37.152988    5.425698   x
            x    C        84       41.768024   34.815893    5.417282   x
            x    C        85       35.043761   46.465752    5.530238   x
            x    C        86       37.740943   46.465420    5.512168   x
            x    C        87       35.043495   32.490073    5.413899   x
            x    C        88       37.741204   32.490096    5.409019   x
            x    C        89       26.970517   41.804088    5.496621   x
            x    C        90       26.969817   37.153613    5.455071   x
            x    C        91       45.812856   41.803685    5.469441   x
            x    C        92       43.115414   46.476882    5.481690   x
            x    C        93       29.669095   46.477444    5.543140   x
            x    C        94       25.629278   39.478888    5.520394   x
            x    C        95       45.813497   37.153456    5.440862   x
            x    C        96       29.668080   32.478899    5.451406   x
            x    C        97       25.621967   44.141201    5.540893   x
            x    C        98       39.089658   48.801774    5.540370   x
            x    C        99       43.115980   32.478755    5.440263   x
            x    C       100       45.813107   46.476095    5.474333   x
            x    C       101       47.162076   44.139358    5.474251   x
            x    C       102       47.155398   39.478539    5.486709   x
            x    C       103       33.695537   48.801194    5.579500   x
            x    C       104       26.971022   46.477925    5.557302   x
            x    C       105       41.773544   48.800921    5.541056   x
            x    C       106        1.409330   11.519767    5.388401   x
            x    C       107        2.758006   13.854918    5.398418   x
            x    C       108        5.454609   13.854019    5.400169   x
            x    C       109        2.758625    9.184424    5.379232   x
            x    C       110       31.011220   48.800824    5.607719   x
            x    C       111       63.295845   11.519986    5.421669   x
            x    C       112        5.455149    9.183879    5.382760   x
            x    C       113        6.803886   11.519280    5.394242   x
            x    C       114       25.620960   34.815945    5.472703   x
            x    C       115       39.090468   30.153606    5.441399   x
            x    C       116       33.695271   30.154387    5.460850   x
            x    C       117        1.415042   16.178527    5.442264   x
            x    C       118       61.952968    9.195452    5.396568   x
            x    C       119        1.415654    6.859508    5.398292   x
            x    C       120       63.301912    6.859341    5.383440   x
            x    C       121       61.952992   13.844076    5.425704   x
            x    C       122        6.796768   16.177980    5.442115   x
            x    C       123        9.488070   11.518297    5.432324   x
            x    C       124        6.798271    6.859231    5.405576   x
            x    C       125       63.301881   16.178908    5.435702   x
            x    C       126       26.970268   32.478852    5.472968   x
            x    C       127       59.256729    9.195251    5.411138   x
            x    C       128        9.482803    6.858529    5.398117   x
            x    C       129        2.757472   18.503074    5.442131   x
            x    C       130        2.758468    4.534051    5.378591   x
            x    C       131       10.831292    9.194058    5.413998   x
            x    C       132       22.945031   39.478782    5.546502   x
            x    C       133        5.453548   18.502341    5.441026   x
            x    C       134        5.455548    4.533971    5.382997   x
            x    C       135       61.953093    4.522633    5.383167   x
            x    C       136       31.010541   30.155098    5.508440   x
            x    C       137       57.907315    6.859128    5.406573   x
            x    C       138        9.480732   16.177063    5.435915   x
            x    C       139       10.830321   13.842325    5.434099   x
            x    C       140       59.256311    4.522294    5.391769   x
            x    C       141       22.939043   44.139862    5.607174   x
            x    C       142       41.774264   30.154212    5.488089   x
            x    C       143       47.162662   34.816039    5.446721   x
            x    C       144        1.409283    2.197460    5.384258   x
            x    C       145       57.914352   11.519352    5.461527   x
            x    C       146       10.831511    4.522144    5.405973   x
            x    C       147       59.257058   13.843201    5.446476   x
            x    C       148       63.295622    2.197178    5.405174   x
            x    C       149       13.528053    9.193631    5.439228   x
            x    C       150        6.804474    2.197487    5.395591   x
            x    C       151       49.846604   44.138055    5.511369   x
            x    C       152       47.155214   48.800526    5.511441   x
            x    C       153       45.813629   32.478692    5.453541   x
            x    C       154        9.488892    2.197411    5.427331   x
            x    C       155       13.528767    4.521709    5.427722   x
            x    C       156       57.913588    2.197388    5.424130   x
            x    C       157       55.223678    6.858826    5.453960   x
            x    C       158       21.597085   41.815449    5.583291   x
            x    C       159        1.408471   20.838418    5.478986   x
            x    C       160        2.758583   74.420860    5.397758   x
            x    C       161       14.876971    6.857905    5.444755   x
            x    C       162       61.953700   18.514607    5.469631   x
            x    C       163       61.952782   74.431699    5.395274   x
            x    C       164        5.455151   74.421023    5.404747   x
            x    C       165       37.741385   51.138332    5.587101   x
            x    C       166        6.802116   20.838116    5.472496   x
            x    C       167       49.840258   39.478215    5.483366   x
            x    C       168       35.043652   51.137670    5.607826   x
            x    C       169       59.256522   74.432037    5.403162   x
            x    C       170       13.526980   13.840946    5.462752   x
            x    C       171       53.880906    4.533954    5.439061   x
            x    C       172       43.115131   51.125513    5.535641   x
            x    C       173       55.229346    2.197641    5.427081   x
            x    C       174        1.415301   72.096314    5.429248   x
            x    C       175       10.828848   18.513084    5.464313   x
            x    C       176       14.869638   11.517323    5.489342   x
            x    C       177       63.302033   72.096252    5.407109   x
            x    C       178       22.938170   34.816791    5.547027   x
            x    C       179       25.630344   48.801778    5.624937   x
            x    C       180       55.230554   11.518314    5.469513   x
            x    C       181       21.596504   37.141873    5.552714   x
            x    C       182       53.881386    9.183619    5.465051   x
            x    C       183       63.295796   20.838433    5.516625   x
            x    C       184       14.870701    2.197442    5.473365   x
            x    C       185       10.831612   74.432344    5.429505   x
            x    C       186        6.798039   72.096718    5.447000   x
            x    C       187        9.485982   20.837181    5.502254   x
            x    C       188       17.560810    6.857778    5.501533   x
            x    C       189       51.189561   41.813643    5.497293   x
            x    C       190       57.908235   16.178260    5.479727   x
            x    C       191        2.758485   69.771949    5.423807   x
            x    C       192       45.812407   51.124902    5.510667   x
            x    C       193       61.953063   69.761139    5.422721   x
            x    C       194       49.839410   48.799389    5.492264   x
            x    C       195       51.188790   46.462662    5.495097   x
            x    C       196       57.907346   72.096468    5.425303   x
            x    C       197        5.453386   23.174062    5.506075   x
            x    C       198        2.756682   23.174377    5.511395   x
            x    C       199        5.455017   69.772629    5.435108   x
            x    C       200        1.409350   67.436940    5.431404   x
            x    C       201       21.597520   46.464780    5.611709   x
            x    C       202       35.043542   27.818270    5.494826   x
            x    C       203       37.741868   27.817851    5.483568   x
            x    C       204       53.881042   74.421309    5.451056   x
            x    C       205       13.528398   74.432825    5.452007   x
            x    C       206        9.482342   72.097249    5.440884   x
            x    C       207       59.257367   18.514151    5.491012   x
            x    C       208       51.184255    4.534021    5.471438   x
            x    C       209       63.295881   67.437042    5.454129   x
            x    C       210       29.669611   51.125231    5.612064   x
            x    C       211       17.554835    2.197573    5.486837   x
            x    C       212       18.902559    4.533297    5.495822   x
            x    C       213       59.256776   69.761279    5.432805   x
            x    C       214        2.758021   65.100900    5.447453   x
            x    C       215       55.224116   72.097215    5.472545   x
            x    C       216       14.875252   16.176080    5.491757   x
            x    C       217       25.630022   30.155203    5.547546   x
            x    C       218       13.526228   18.512371    5.490606   x
            x    C       219        1.415263   62.777206    5.484894   x
            x    C       220       17.553913   11.516540    5.501530   x
            x    C       221       61.953589   65.112563    5.450525   x
            x    C       222       18.902373    9.181839    5.505285   x
            x    C       223       49.846647   34.816715    5.505483   x
            x    C       224       63.302296   62.777075    5.464936   x
            x    C       225       22.946530   48.801192    5.615222   x
            x    C       226       18.899248   41.815070    5.602349   x
            x    C       227        6.803896   67.437395    5.458535   x
            x    C       228       49.835763    2.197654    5.488463   x
            x    C       229       51.185366    9.182289    5.498433   x
            x    C       230        5.454793   65.101659    5.462851   x
            x    C       231       51.189410   37.141726    5.491688   x
            x    C       232       51.184825   74.421464    5.480411   x
            x    C       233       49.842985    6.858067    5.524745   x
            x    C       234        2.757651   60.453143    5.486004   x
            x    C       235       53.882618   13.853113    5.506729   x
            x    C       236       26.972082   51.125668    5.614364   x
            x    C       237       29.669419   27.831335    5.543448   x
            x    C       238       57.914720   67.437399    5.478593   x
            x    C       239        1.408740   58.118318    5.505290   x
            x    C       240       21.599714    4.533526    5.528793   x
            x    C       241       55.225521   16.176720    5.535321   x
            x    C       242       10.830656   69.762357    5.473827   x
            x    C       243       10.828593   23.161943    5.511549   x
            x    C       244       61.954107   60.441575    5.486750   x
            x    C       245       59.257407   65.113372    5.461014   x
            x    C       246       61.954261   23.162575    5.537448   x
            x    C       247       39.083116   53.461634    5.636367   x
            x    C       248       41.766484   53.461244    5.579856   x
            x    C       249       63.296211   58.118078    5.527106   x
            x    C       250       21.597007   32.492013    5.546810   x
            x    C       251       14.876543   72.097780    5.489575   x
            x    C       252        5.453901   60.453869    5.500988   x
            x    C       253       18.898881   37.142281    5.580306   x
            x    C       254       18.902207   74.421785    5.519258   x
            x    C       255       18.900062   46.463815    5.618586   x
            x    C       256       47.155245   30.154493    5.524894   x
            x    C       257        6.795587   25.498178    5.561002   x
            x    C       258        1.415045   25.498076    5.575406   x
            x    C       259       43.116438   27.829777    5.518930   x
            x    C       260       53.885512   46.462097    5.511416   x
            x    C       261       51.188142   51.135757    5.503944   x
            x    C       262        9.487694   67.438575    5.505233   x
            x    C       263        6.796885   62.777651    5.516216   x
            x    C       264       53.882067   69.772971    5.480872   x
            x    C       265       17.557917   44.139350    5.636119   x
            x    C       266        2.757159   55.783253    5.530236   x
            x    C       267       53.886459   41.813653    5.517201   x
            x    C       268       17.550553   39.478731    5.593965   x
            x    C       269       33.702341   53.461044    5.663853   x
            x    C       270       26.971879   27.831546    5.554067   x
            x    C       271       47.153041    2.197489    5.549314   x
            x    C       272       22.946260   30.155986    5.545871   x
            x    C       273       47.161597   53.461007    5.521508   x
            x    C       274       22.947683    2.197669    5.548925   x
            x    C       275       57.915866   20.837800    5.556862   x
            x    C       276       55.231037   67.438177    5.480198   x
            x    C       277       21.599504    9.180878    5.537122   x
            x    C       278       22.940946    6.857308    5.572622   x
            x    C       279       17.559209   16.174932    5.549328   x
            x    C       280        9.479527   25.497357    5.534138   x
            x    C       281       14.868131   20.836797    5.549873   x
            x    C       282       59.258076   60.441916    5.492929   x
            x    C       283       61.954426   55.794097    5.521983   x
            x    C       284       13.527522   69.762713    5.499527   x
            x    C       285       18.901593   13.851072    5.530184   x
            x    C       286       57.908934   62.777486    5.482453   x
            x    C       287       49.843385   72.097932    5.532390   x
            x    C       288        5.453511   55.783450    5.541853   x
            x    C       289       17.560061   72.098273    5.546150   x
            x    C       290       63.302446   25.497697    5.561998   x
            x    C       291        6.802701   58.118723    5.531903   x
            x    C       292       47.159551    6.857318    5.542052   x
            x    C       293       21.599259   74.421573    5.547279   x
            x    C       294        1.415268   53.458968    5.565694   x
            x    C       295       13.525653   23.161108    5.530721   x
            x    C       296       31.018452   53.460859    5.629133   x
            x    C       297       53.885012   51.135135    5.511016   x
            x    C       298       55.227658   44.137554    5.551290   x
            x    C       299       45.811602    4.521677    5.548031   x
            x    C       300       49.836976   11.517498    5.534410   x
            x    C       301       49.845543   53.460303    5.539526   x
            x    C       302       63.302686   53.458626    5.535450   x
            x    C       303       55.233645   48.798289    5.515706   x
            x    C       304       59.258233   23.161900    5.550438   x
            x    C       305       51.186119   69.774230    5.507337   x
            x    C       306        9.480548   62.778680    5.521868   x
            x    C       307       59.258561   55.794473    5.520695   x
            x    C       308       51.186438   13.852616    5.537380   x
            x    C       309       45.812813   27.830208    5.529103   x
            x    C       310        5.452905   27.822044    5.569716   x
            x    C       311       10.829709   65.114196    5.516453   x
            x    C       312       57.915971   58.118237    5.534614   x
            x    C       313       51.188703   32.491658    5.519303   x
            x    C       314        2.756885   27.822071    5.575738   x
            x    C       315       25.631714    2.197522    5.601196   x
            x    C       316       45.811530   74.433243    5.546633   x
            x    C       317       17.551459   48.800874    5.615137   x
            x    C       318       17.557482   34.817033    5.604627   x
            x    C       319       18.899653   32.492662    5.570081   x
            x    C       320       21.598082   51.138315    5.625486   x
            x    C       321       53.886723   37.141604    5.521642   x
            x    C       322        6.795614   53.459176    5.585473   x
            x    C       323       33.702790   25.496265    5.585495   x
            x    C       324       14.874445   44.138931    5.600451   x
            x    C       325        2.756848   51.134292    5.559859   x
            x    C       326       57.910024   53.459168    5.523397   x
            x    C       327       39.084204   25.495021    5.562261   x
            x    C       328       55.226551   53.460188    5.543420   x
            x    C       329       53.883177   65.102450    5.501107   x
            x    C       330       49.839256   30.155346    5.528643   x
            x    C       331       61.955075   51.122229    5.540943   x
            x    C       332       53.883730   18.500944    5.549155   x
            x    C       333       55.225855   62.778427    5.522439   x
            x    C       334       25.625678    6.856806    5.582944   x
            x    C       335       47.160039   72.098755    5.540792   x
            x    C       336        9.486049   58.119315    5.577100   x
            x    C       337       59.258503   51.122376    5.530346   x
            x    C       338        5.453437   51.134671    5.567834   x
            x    C       339       55.235698   39.478106    5.532520   x
            x    C       340       57.917042   48.797650    5.555603   x
            x    C       341       26.973239    4.521368    5.589006   x
            x    C       342       31.018063   25.496631    5.574849   x
            x    C       343       17.552148   20.835853    5.556777   x
            x    C       344       14.866701   39.479019    5.617465   x
            x    C       345       55.232695   20.836690    5.557592   x
            x    C       346       10.828519   27.832743    5.556446   x
            x    C       347       43.115356    4.521202    5.573372   x
            x    C       348       53.884311   55.784315    5.525534   x
            x    C       349       18.900749   18.499219    5.554215   x
            x    C       350       43.115399   55.796680    5.583247   x
            x    C       351       55.232885   58.119389    5.519077   x
            x    C       352       45.812322   55.796599    5.551733   x
            x    C       353       13.525398   46.475582    5.590317   x
            x    C       354       41.768055   25.495105    5.546270   x
            x    C       355       14.867490   48.799862    5.626074   x
            x    C       356       14.868849   67.439325    5.559555   x
            x    C       357       14.874524   25.496780    5.557853   x
            x    C       358       10.828782   60.442672    5.551367   x
            x    C       359        9.479698   53.459737    5.573991   x
            x    C       360       22.947776   11.515982    5.561241   x
            x    C       361       45.812181    9.192984    5.572105   x
            x    C       362       18.900047   51.137378    5.621602   x
            x    C       363       25.623116   53.461673    5.625728   x
            x    C       364       13.524997   41.803271    5.592734   x
            x    C       365       21.598036   27.819708    5.569205   x
            x    C       366       51.187915   55.784811    5.528797   x
            x    C       367        1.408740   48.797527    5.567048   x
            x    C       368       21.599028   13.851283    5.557559   x
            x    C       369       37.741105   55.784868    5.651354   x
            x    C       370       63.296479   48.797505    5.582014   x
            x    C       371       22.940447   72.098597    5.599921   x
            x    C       372       57.911043   44.137463    5.555212   x
            x    C       373       13.526617   65.115450    5.541125   x
            x    C       374       43.115362   74.433638    5.571326   x
            x    C       375       41.774367    2.197450    5.604562   x
            x    C       376       18.901514   69.774582    5.560122   x
            x    C       377       26.973177   74.433404    5.595061   x
            x    C       378       53.883657   60.454420    5.516264   x
            x    C       379       59.259179   46.473119    5.553797   x
            x    C       380       61.954636   27.832936    5.585883   x
            x    C       381       10.828790   55.795174    5.575365   x
            x    C       382       13.525568   27.832392    5.562396   x
            x    C       383        6.801906   48.798243    5.575885   x
            x    C       384       49.837513   67.439059    5.529071   x
            x    C       385       47.154147   11.516690    5.594316   x
            x    C       386       17.551411   30.156056    5.572395   x
            x    C       387       10.828484   51.123769    5.581985   x
            x    C       388       35.044119   55.784422    5.660326   x
            x    C       389        9.485818   48.799147    5.600195   x
            x    C       390        6.801636   30.157249    5.578790   x
            x    C       391       29.671227    4.521143    5.600552   x
            x    C       392       13.525636   51.124138    5.596228   x
            x    C       393       25.623474   25.495730    5.576736   x
            x    C       394       14.873774   34.817837    5.583695   x
            x    C       395       10.827932   46.474891    5.576001   x
            x    C       396       18.900057   27.820323    5.573510   x
            x    C       397        1.408362   30.157626    5.591480   x
            x    C       398       17.558178   25.496286    5.597404   x
            x    C       399       57.909669   25.497117    5.573757   x
            x    C       400       51.186414   65.102944    5.523531   x
            x    C       401        9.485474   30.156494    5.592628   x
            x    C       402       22.939332   53.461746    5.656976   x
            x    C       403       13.524659   37.154535    5.585403   x
            x    C       404       61.955218   46.472874    5.568434   x
            x    C       405       18.900198   23.171972    5.578328   x
            x    C       406       53.885541   32.492379    5.550042   x
            x    C       407       31.012570    2.197655    5.629107   x
            x    C       408       14.867740   30.156506    5.596498   x
            x    C       409        5.453089   46.461567    5.582330   x
            x    C       410       55.227675   34.817343    5.576264   x
            x    C       411       41.767593    6.857146    5.590837   x
            x    C       412        2.756667   46.461045    5.582062   x
            x    C       413       25.625021   72.098976    5.597412   x
            x    C       414       22.939503   25.496446    5.604593   x
            x    C       415       29.670927   74.433861    5.604490   x
            x    C       416       49.845066   16.176121    5.593379   x
            x    C       417       39.090757    2.197539    5.600699   x
            x    C       418       17.553033   67.439846    5.563593   x
            x    C       419       45.812077   69.763805    5.563480   x
            x    C       420       26.973414    9.191938    5.598622   x
            x    C       421        9.478304   44.138255    5.578473   x
            x    C       422       49.838330   58.119639    5.540377   x
            x    C       423       21.598414   69.775290    5.580343   x
            x    C       424       13.524882   32.480809    5.574805   x
            x    C       425       10.827629   41.802735    5.584937   x
            x    C       426       14.874888   53.460606    5.606218   x
            x    C       427       63.296423   30.157190    5.620706   x
            x    C       428       33.697327    2.197725    5.613499   x
            x    C       429       57.917994   39.478359    5.592799   x
            x    C       430       59.258519   27.832919    5.585109   x
            x    C       431       13.525516   55.795916    5.593546   x
            x    C       432       51.187585   18.499643    5.569079   x
            x    C       433       13.525834   60.443149    5.572059   x
            x    C       434       59.259561   41.802385    5.577314   x
            x    C       435       51.187263   60.455432    5.532970   x
            x    C       436       37.742836    4.533371    5.607247   x
            x    C       437       17.558214   53.461833    5.646547   x
            x    C       438       43.115676    9.192894    5.594068   x
            x    C       439       51.188544   27.820155    5.560693   x
            x    C       440       29.669808   55.797007    5.633225   x
            x    C       441       41.767068   72.098672    5.587101   x
            x    C       442        5.452976   32.493752    5.587512   x
            x    C       443       53.884624   23.172603    5.576825   x
            x    C       444       35.045430    4.533460    5.612768   x
            x    C       445        6.794870   44.137548    5.611337   x
            x    C       446       10.827800   32.481084    5.570731   x
            x    C       447       47.155002   58.120040    5.583041   x
            x    C       448       25.631822   11.515641    5.614184   x
            x    C       449       37.742463   74.422031    5.610847   x
            x    C       450       31.019627    6.856873    5.608069   x
            x    C       451       21.598563   18.498443    5.575269   x
            x    C       452       47.162511   25.495387    5.553968   x
            x    C       453       47.154096   67.439970    5.580306   x
            x    C       454       63.303218   44.137323    5.588406   x
            x    C       455       14.874912   62.779356    5.567249   x
            x    C       456       21.597872   23.171774    5.587734   x
            x    C       457        1.415256   44.137293    5.617853   x
            x    C       458        2.756379   32.494048    5.594769   x
            x    C       459       55.226649   25.496428    5.601915   x
            x    C       460       49.844703   62.778790    5.566548   x
            x    C       461       35.045349   74.422116    5.617281   x
            x    C       462       10.827167   37.154897    5.580608   x
            x    C       463       39.084008    6.857379    5.629768   x
            x    C       464        9.485091   39.479048    5.611902   x
            x    C       465       22.940372   16.174858    5.604181   x
            x    C       466       26.971439   55.797677    5.627409   x
            x    C       467       55.233945   30.156316    5.572474   x
            x    C       468        9.478229   34.818322    5.575624   x
            x    C       469       53.884916   27.820698    5.573692   x
            x    C       470       41.773779   58.119485    5.638369   x
            x    C       471       14.868117   58.119418    5.617867   x
            x    C       472       35.045062   23.171944    5.596928   x
            x    C       473       33.704295    6.857300    5.638509   x
            x    C       474       61.955215   41.802106    5.595588   x
            x    C       475       37.742460   23.171737    5.579976   x
            x    C       476        5.452309   41.813227    5.603117   x
            x    C       477       49.845857   25.496634    5.590345   x
            x    C       478       43.115485   69.763600    5.584476   x
            x    C       479       57.916986   30.156978    5.612032   x
            x    C       480       29.671414    9.192359    5.610807   x
            x    C       481       57.911326   34.817816    5.586146   x
            x    C       482       39.083669   72.098309    5.630211   x
            x    C       483        6.794791   34.818299    5.610636   x
            x    C       484       31.019408   72.098992    5.612467   x
            x    C       485       39.089832   58.119701    5.642182   x
            x    C       486        2.756816   41.813249    5.606574   x
            x    C       487       29.670375   23.159948    5.596696   x
            x    C       488       59.259571   37.153878    5.592951   x
            x    C       489       26.972017   23.159555    5.589885   x
            x    C       490       61.955247   32.481689    5.606457   x
            x    C       491        6.801043   39.478494    5.600155   x
            x    C       492       45.812902   13.840570    5.599229   x
            x    C       493       22.946645   20.835078    5.588915   x
            x    C       494       18.900589   55.785439    5.629282   x
            x    C       495        1.415025   34.818385    5.628738   x
            x    C       496       33.703988   72.098665    5.642463   x
            x    C       497       59.259203   32.481291    5.598448   x
            x    C       498        5.452623   37.142981    5.599938   x
            x    C       499       51.187959   23.172038    5.577676   x
            x    C       500       21.597674   55.785737    5.637003   x
            x    C       501        1.408493   39.478358    5.609416   x
            x    C       502       63.296307   39.478376    5.630770   x
            x    C       503       43.116532   23.159388    5.567502   x
            x    C       504       26.972758   69.764295    5.611836   x
            x    C       505       18.900598   65.104084    5.583423   x
            x    C       506        2.756456   37.142880    5.606344   x
            x    C       507       49.838970   20.836103    5.578830   x
            x    C       508       63.303098   34.818200    5.610777   x
            x    C       509       45.812599   60.443810    5.582927   x
            x    C       510       47.161460   16.175355    5.595122   x
            x    C       511       47.160956   62.779461    5.570262   x
            x    C       512       61.955393   37.154376    5.609156   x
            x    C       513       17.558643   62.779945    5.608296   x
            x    C       514       17.551796   58.120270    5.610718   x
            x    C       515       45.812715   65.115396    5.576310   x
            x    C       516       45.813686   23.159182    5.565806   x
            x    C       517       33.695741   58.119676    5.658310   x
            x    C       518       22.946723   67.440253    5.597936   x
            x    C       519       37.742835    9.181108    5.620877   x
            x    C       520       41.774730   11.516496    5.635630   x
            x    C       521       29.670837   69.763999    5.616832   x
            x    C       522       35.045609    9.181130    5.624942   x
            x    C       523       43.115943   60.443509    5.605559   x
            x    C       524       37.742206   69.774656    5.620622   x
            x    C       525       25.630882   20.834686    5.623421   x
            x    C       526       31.011460   58.120084    5.673881   x
            x    C       527       26.973204   13.839470    5.606650   x
            x    C       528       41.774195   67.439874    5.623378   x
            x    C       529       25.625378   16.174682    5.603612   x
            x    C       530       18.900482   60.456001    5.602706   x
            x    C       531       35.045081   69.775023    5.626792   x
            x    C       532       21.598549   65.103892    5.597715   x
            x    C       533       25.631253   67.440523    5.636709   x
            x    C       534       47.155542   20.835275    5.606367   x
            x    C       535       43.116559   13.839763    5.613012   x
            x    C       536       22.946208   58.120747    5.632695   x
            x    C       537       43.115557   65.115895    5.595492   x
            x    C       538       25.630170   58.121283    5.661709   x
            x    C       539       31.012932   11.515775    5.643987   x
            x    C       540       39.090970   11.516137    5.622397   x
            x    C       541       37.742047   60.455352    5.639394   x
            x    C       542       45.813443   18.511057    5.598222   x
            x    C       543       39.090161   67.439760    5.616925   x
            x    C       544       41.767700   62.779748    5.610896   x
            x    C       545       31.012454   20.836158    5.640947   x
            x    C       546       21.598127   60.456547    5.615848   x
            x    C       547       33.697682   11.515864    5.629817   x
            x    C       548       41.775091   20.835820    5.609411   x
            x    C       549       33.697351   20.836072    5.618573   x
            x    C       550       39.091408   20.835213    5.589023   x
            x    C       551       26.972685   18.510871    5.611613   x
            x    C       552       35.043986   60.455539    5.645635   x
            x    C       553       29.671272   13.839278    5.617088   x
            x    C       554       31.012022   67.440262    5.649176   x
            x    C       555       33.697041   67.439954    5.630281   x
            x    C       556       22.939998   62.779948    5.639953   x
            x    C       557       39.083795   62.779786    5.648839   x
            x    C       558       29.669846   60.443776    5.648722   x
            x    C       559       26.972108   65.115925    5.628930   x
            x    C       560       37.742606   65.103698    5.626035   x
            x    C       561       26.971960   60.444413    5.645604   x
            x    C       562       43.116621   18.510969    5.600880   x
            x    C       563       41.768479   16.174839    5.611699   x
            x    C       564       25.624820   62.780308    5.635050   x
            x    C       565       29.671362   18.511410    5.619157   x
            x    C       566       29.670511   65.116008    5.631642   x
            x    C       567       35.044295   65.103830    5.632434   x
            x    C       568       37.742825   13.850672    5.625787   x
            x    C       569       33.702837   62.779512    5.661704   x
            x    C       570       35.045349   13.850630    5.629692   x
            x    C       571       31.017912   62.779795    5.640379   x
            x    C       572       31.019188   16.174899    5.620653   x
            x    C       573       37.743349   18.498296    5.602243   x
            x    C       574       35.044700   18.498729    5.614824   x
            x    C       575       39.084542   16.174187    5.636276   x
            x    C       576       33.703952   16.174812    5.646757   x
            x    C       577       33.705462   39.489785   12.323564   x
            x    C       578       33.713053   34.808148   12.229289   x
            x    C       579       35.057586   37.139031   12.337002   x
            x    C       580       29.672699   37.151302   12.383914   x
            x    C       581       35.060412   41.831655   12.363601   x
            x    C       582       37.774831   37.146454   12.373386   x
            x    C       583       35.050511   32.481775   12.326880   x
            x    C       584       29.666937   32.463048   12.368478   x
            x    C       585       37.766792   32.483893   12.378702   x
            x    C       586       31.016788   39.484484   12.326428   x
            x    C       587       39.112189   34.806535   12.368583   x
            x    C       588       39.126921   39.478838   12.373006   x
            x    C       589       31.022521   34.805762   12.348305   x
            x    C       590       29.671722   41.811962   12.443779   x
            x    C       591       33.702867   30.138555   12.394801   x
            x    C       592       37.771853   41.829338   12.458646   x
            x    C       593       39.119038   30.127347   12.480713   x
            x    C       594       35.058104   27.797177   12.541289   x
            x    C       595       31.017463   30.137151   12.470372   x
            x    C       596       31.028353   44.166854   12.406611   x
            x    C       597       41.813899   34.809423   12.447313   x
            x    C       598       25.613357   39.481162   12.497772   x
            x    C       599       41.820867   39.478273   12.344611   x
            x    C       600       39.119657   44.155824   12.435053   x
            x    C       601       26.956543   41.816773   12.491018   x
            x    C       602       25.612855   34.801195   12.465690   x
            x    C       603       37.766514   27.791378   12.460597   x
            x    C       604       41.818617   30.126400   12.491294   x
            x    C       605       41.808372   44.154199   12.548635   x
            x    C       606       26.960774   37.154289   12.445991   x
            x    C       607       26.966834   32.466001   12.532774   x
            x    C       608       33.717007   44.165314   12.370900   x
            x    C       609       25.607328   44.165745   12.539102   x
            x    C       610       43.169503   37.151859   12.404827   x
            x    C       611       25.621082   30.133520   12.642359   x
            x    C       612       43.166750   32.456602   12.491709   x
            x    C       613       43.161772   41.807185   12.447708   x
            x    C       614       29.671376   46.517074   12.432018   x
            x    C       615       22.910922   39.475715   12.585531   x
            x    C       616       21.560509   41.830696   12.616340   x
            x    C       617       26.965190   27.808967   12.551889   x
            x    C       618       45.866537   41.803307   12.454316   x
            x    C       619       21.564699   37.128234   12.579279   x
            x    C       620       22.900952   44.158124   12.570012   x
            x    C       621       21.571866   32.461682   12.553353   x
            x    C       622       39.128794   48.832233   12.553134   x
            x    C       623       22.913612   34.796793   12.529094   x
            x    C       624       26.958768   46.513688   12.501424   x
            x    C       625       35.057289   46.489978   12.465702   x
            x    C       626       47.210415   39.466904   12.456901   x
            x    C       627       37.773179   46.480769   12.622846   x
            x    C       628       29.665824   27.804040   12.555230   x
            x    C       629       18.846795   37.125514   12.591881   x
            x    C       630       18.838657   41.823273   12.616398   x
            x    C       631       43.163690   46.506198   12.563013   x
            x    C       632       45.869769   37.143748   12.460319   x
            x    C       633       41.822328   48.830232   12.570749   x
            x    C       634       22.927943   30.129077   12.642791   x
            x    C       635       47.214522   44.152449   12.546069   x
            x    C       636       31.023931   48.844976   12.393331   x
            x    C       637       47.208722   34.805079   12.509698   x
            x    C       638       33.710912   25.462506   12.470397   x
            x    C       639       39.113949   25.463343   12.557122   x
            x    C       640        1.407764   11.516679   12.523111   x
            x    C       641        2.756095    9.183956   12.519858   x
            x    C       642        1.415076    6.860626   12.498858   x
            x    C       643       61.956619    9.194856   12.522527   x
            x    C       644       63.303851    6.861615   12.520823   x
            x    C       645       63.297747   11.516418   12.505164   x
            x    C       646       45.861327   32.460292   12.522373   x
            x    C       647        5.452002    9.181900   12.520951   x
            x    C       648       18.855140   32.457626   12.504849   x
            x    C       649        2.755663   13.848447   12.529607   x
            x    C       650       61.956506    4.526448   12.526130   x
            x    C       651        2.757513    4.536631   12.523164   x
            x    C       652       45.857269   46.502373   12.556382   x
            x    C       653        6.795402    6.858744   12.503367   x
            x    C       654        5.453650    4.535269   12.525036   x
            x    C       655       35.059846   23.135472   12.560405   x
            x    C       656        6.799946   11.514358   12.524057   x
            x    C       657       59.263072    9.192022   12.532608   x
            x    C       658        5.449560   13.845893   12.530080   x
            x    C       659       59.261667    4.525181   12.533289   x
            x    C       660       33.708762   48.835483   12.524287   x
            x    C       661        1.409724    2.201464   12.524548   x
            x    C       662       57.914186    6.859155   12.537700   x
            x    C       663       63.297995    2.201765   12.505663   x
            x    C       664       61.957280   13.838029   12.541956   x
            x    C       665        9.478809    6.857845   12.531365   x
            x    C       666        1.414249   16.170188   12.523820   x
            x    C       667        6.801591    2.201651   12.528671   x
            x    C       668       57.919876    2.201175   12.518180   x
            x    C       669       61.956910   74.436596   12.532210   x
            x    C       670       49.883422   39.475780   12.533168   x
            x    C       671       35.060332   51.164242   12.598431   x
            x    C       672        2.758123   74.426746   12.525182   x
            x    C       673        9.484141    2.201964   12.517860   x
            x    C       674       10.826899    4.524048   12.539622   x
            x    C       675        9.482875   11.511477   12.509876   x
            x    C       676        5.453535   74.427950   12.527944   x
            x    C       677       59.262094   74.437631   12.538780   x
            x    C       678       63.303868   16.171623   12.551689   x
            x    C       679       10.827515    9.190254   12.532268   x
            x    C       680       17.489561   39.476108   12.572299   x
            x    C       681       57.921093   11.514266   12.527353   x
            x    C       682       49.890839   44.149714   12.532761   x
            x    C       683       55.236969    2.201591   12.550228   x
            x    C       684       55.231022    6.857351   12.532843   x
            x    C       685        1.415554   72.103855   12.509110   x
            x    C       686       17.497572   44.159157   12.558052   x
            x    C       687       63.304141   72.102272   12.532336   x
            x    C       688        6.790766   16.166125   12.524784   x
            x    C       689       53.888109    4.535292   12.558760   x
            x    C       690       43.159972   27.803859   12.567668   x
            x    C       691       59.262962   13.836804   12.553151   x
            x    C       692       13.522381    4.525044   12.549273   x
            x    C       693       31.022366   25.457265   12.497169   x
            x    C       694       57.914249   72.103933   12.545639   x
            x    C       695       25.614470   25.458786   12.665463   x
            x    C       696       37.766694   51.163782   12.671661   x
            x    C       697       10.825999   74.439960   12.552596   x
            x    C       698        2.753518   18.492141   12.561024   x
            x    C       699       17.503109   34.791664   12.545603   x
            x    C       700        6.795276   72.106270   12.516933   x
            x    C       701       53.888619   74.427332   12.557017   x
            x    C       702       61.956487   69.768887   12.539111   x
            x    C       703        5.447827   18.488324   12.560358   x
            x    C       704        2.756390   69.781038   12.539912   x
            x    C       705       59.262824   69.771029   12.546301   x
            x    C       706       10.823204   13.830620   12.545835   x
            x    C       707       55.231931   72.105499   12.534707   x
            x    C       708       14.864950    2.202436   12.540192   x
            x    C       709       13.521797    9.188633   12.543907   x
            x    C       710        9.477551   72.106963   12.551711   x
            x    C       711       13.521975   74.439764   12.563141   x
            x    C       712       51.231148   41.818701   12.547839   x
            x    C       713        5.451849   69.784102   12.542844   x
            x    C       714        9.472258   16.163499   12.554161   x
            x    C       715       53.889289    9.178837   12.573672   x
            x    C       716       63.297285   67.445869   12.527070   x
            x    C       717       14.870910    6.857203   12.552081   x
            x    C       718        1.407836   67.447262   12.550525   x
            x    C       719       51.192047    4.535447   12.576650   x
            x    C       720       55.238812   11.512846   12.571746   x
            x    C       721       51.193339   74.428662   12.573562   x
            x    C       722       61.956890   18.506258   12.572795   x
            x    C       723       61.957591   65.122858   12.561461   x
            x    C       724       49.844410    2.202016   12.584075   x
            x    C       725       57.921770   67.448946   12.540840   x
            x    C       726       17.547815    2.202442   12.580239   x
            x    C       727       21.564491   46.496428   12.590584   x
            x    C       728       47.199581   48.823841   12.545665   x
            x    C       729       53.890666   69.784355   12.574603   x
            x    C       730        2.754613   65.114129   12.563332   x
            x    C       731        1.405713   20.827996   12.577999   x
            x    C       732       29.665907   23.116221   12.578481   x
            x    C       733       63.303680   62.788395   12.568309   x
            x    C       734       59.263480   65.125561   12.568593   x
            x    C       735        1.413254   62.790692   12.550039   x
            x    C       736       57.915709   16.171166   12.576640   x
            x    C       737        6.799049   67.451310   12.558957   x
            x    C       738       41.802245   25.465192   12.607717   x
[...]
 C    82 -- C   114       -0.07      0.00      5.39573
 C   210 -- C   466       -0.07     -0.00      5.39573
 C   582 -- C   610       -0.06     -0.00      5.39576
 C   868 -- C   899       -0.07      0.00      5.39579
 C    85 -- C   165       -0.07     -0.00      5.39588
 C   595 -- C   638       -0.06      0.00      5.39589
 Li 1130 -- Li 1149        0.12     -0.00      5.39594
 C    86 -- C   168       -0.07     -0.00      5.39596
 C   181 -- C   226       -0.07     -0.00      5.39598
 C   260 -- C   261       -0.07     -0.00      5.39601
 C    91 -- C    92       -0.07      0.00      5.39603
 C   324 -- C   421       -0.07      0.00      5.39603
 C   797 -- C   971       -0.07      0.00      5.39605
 C    87 -- C   203       -0.07     -0.00      5.39616
 C   158 -- C   253       -0.07     -0.00      5.39623
 C   405 -- C   451       -0.07     -0.00      5.39629
 C   319 -- C   365       -0.07     -0.00      5.39631
 C   472 -- C   573       -0.07      0.00      5.39634
 C   779 -- C   949       -0.07      0.00      5.39641
 C   993 -- C  1013       -0.07     -0.00      5.39646
 C    65 -- C    68       -0.07      0.00      5.39647
 C   424 -- C   462       -0.07      0.00      5.39647
 C   999 -- C  1000       -0.07      0.00      5.39651
 C   759 -- C   812       -0.07     -0.00      5.39656
 C   626 -- C   682       -0.08      0.00      5.39667
 C    83 -- C   153       -0.07      0.00      5.39668
 C   591 -- C   693       -0.07     -0.00      5.39670
 C  1060 -- C  1077       -0.08      0.00      5.39680
 C    77 -- C   104       -0.07     -0.00      5.39696
 C   806 -- C   974       -0.07      0.00      5.39703
 C    79 -- C   126       -0.07      0.00      5.39712
 C    95 -- C    99       -0.07      0.00      5.39713
 C   624 -- C   727       -0.06     -0.00      5.39714
 C    89 -- C    93       -0.07      0.00      5.39714
 C   255 -- C   320       -0.07      0.00      5.39726
 C   607 -- C   621       -0.07      0.00      5.39728
 C   781 -- C   889       -0.07      0.00      5.39730
 C   876 -- C   959       -0.07     -0.00      5.39747
 C   816 -- C   967       -0.07      0.00      5.39773
 C    67 -- C    69       -0.07      0.00      5.39785
 C    90 -- C    96       -0.07      0.00      5.39785
 C   611 -- C   816       -0.07      0.00      5.39792
 C   696 -- C   768       -0.07     -0.00      5.39800
 C   880 -- C  1000       -0.08      0.00      5.39800
 C   912 -- C  1059       -0.07      0.00      5.39807
 C   578 -- C   595       -0.07     -0.00      5.39837
 C    66 -- C    70       -0.07      0.00      5.39841
 C   577 -- C   589       -0.07     -0.00      5.39845
 C   580 -- C   601       -0.06     -0.00      5.39877
 C   638 -- C   834       -0.07      0.00      5.39880
 C   671 -- C   906       -0.07      0.00      5.39892
 C   928 -- C  1025       -0.07     -0.00      5.39894
 Li 1171 -- Li 1181        0.15     -0.00      5.39905
 C   619 -- C   648       -0.06      0.00      5.39936
 C   608 -- C   636       -0.06      0.00      5.39938
 C   606 -- C   619       -0.06      0.00      5.39949
 C   595 -- C   611       -0.07     -0.00      5.39964
 C   601 -- C   616       -0.06     -0.00      5.39969
 C   900 -- C   947       -0.07      0.00      5.39982
 C  1049 -- C  1073       -0.07      0.00      5.39982
 C   929 -- C   937       -0.07      0.00      5.39989
 C   602 -- C   615       -0.06     -0.00      5.39998
 C   578 -- C   586       -0.07     -0.00      5.39998
 C   866 -- C   918       -0.07     -0.00      5.40004
 C   883 -- C   919       -0.07      0.00      5.40029
 C   587 -- C   599       -0.06     -0.00      5.40054
 C   954 -- C   958       -0.07      0.00      5.40065
 C   924 -- C  1005       -0.07      0.00      5.40093
 C  1074 -- C  1086       -0.07     -0.00      5.40097
 C   648 -- C   801       -0.06     -0.00      5.40101
 C   600 -- C   633       -0.07     -0.00      5.40102
 C   997 -- C  1028       -0.07      0.00      5.40127
 C   621 -- C   629       -0.06     -0.00      5.40131
 C   840 -- C  1030       -0.06      0.00      5.40144
 C   593 -- C   597       -0.06      0.00      5.40148
 C   582 -- C   583       -0.06     -0.00      5.40165
 C   686 -- C   751       -0.07     -0.00      5.40172
 C   585 -- C   612       -0.06      0.00      5.40211
 C   823 -- C   932       -0.07      0.00      5.40212
 C   861 -- C   925       -0.07      0.00      5.40216
 C   578 -- C   587       -0.06     -0.00      5.40247
 C   620 -- C   686       -0.06      0.00      5.40256
 C   599 -- C   600       -0.07     -0.00      5.40287
 C  1057 -- C  1068       -0.07      0.00      5.40303
 C   586 -- C   608       -0.07      0.00      5.40310
 C   933 -- C   992       -0.07      0.00      5.40315
 C   817 -- C   845       -0.07     -0.00      5.40325
 C   835 -- C   860       -0.07      0.00      5.40337
 C   756 -- C  1003       -0.07      0.00      5.40366
 C   854 -- C   896       -0.07      0.00      5.40378
 C   638 -- C   639       -0.07      0.00      5.40382
 C  1075 -- C  1079       -0.07      0.00      5.40384
 C   621 -- C   903       -0.06     -0.00      5.40411
 C   600 -- C   608       -0.07     -0.00      5.40434
 Li 1121 -- Li 1139        0.11     -0.00      5.40436
 C   699 -- C   751       -0.07     -0.00      5.40439
 C   605 -- C   635       -0.06     -0.00      5.40442
 C   840 -- C   936       -0.07      0.00      5.40484
 C   586 -- C   598       -0.06     -0.00      5.40491
 C   587 -- C   604       -0.06      0.00      5.40593
 Li 1162 -- Li 1180        0.12     -0.00      5.40605
 C   906 -- C  1067       -0.07      0.00      5.40632
 C   625 -- C   696       -0.06     -0.00      5.40693
 C   598 -- C   623       -0.06     -0.00      5.40717
 C   598 -- C   620       -0.06     -0.00      5.40764
 C   785 -- C  1060       -0.07      0.00      5.40783
 Li 1153 -- Li 1181        0.10     -0.00      5.40836
 C   610 -- C   646       -0.07      0.00      5.40904
 C   727 -- C   945       -0.06     -0.00      5.40910
 C   628 -- C   764       -0.06      0.00      5.40915
 C   693 -- C   695       -0.06      0.00      5.40953
 C   623 -- C   699       -0.06     -0.00      5.41004
 C   785 -- C   811       -0.07     -0.00      5.41016
 C   630 -- C   727       -0.06      0.00      5.41032
 C   612 -- C   632       -0.07      0.00      5.41038
 C   609 -- C   615       -0.06      0.00      5.41060
 Li 1179 -- Li 1191        0.12      0.00      5.41067
 Li 1098 -- Li 1129        0.08     -0.00      5.41092
 C   589 -- C   602       -0.06     -0.00      5.41128
 C   627 -- C   671       -0.06     -0.00      5.41250
 C   580 -- C   607       -0.06      0.00      5.41268
 C   617 -- C   732       -0.06      0.00      5.41384
 C   613 -- C   652       -0.06      0.00      5.41408
 C   636 -- C   745       -0.06     -0.00      5.41416
 C  1020 -- C  1034       -0.07     -0.00      5.41451
 C   585 -- C   594       -0.06      0.00      5.41509
 C   581 -- C   582       -0.05     -0.00      5.41527
 C   620 -- C   745       -0.06     -0.00      5.41559
 C   584 -- C   606       -0.06      0.00      5.41576
 Li 1104 -- Li 1121        0.15     -0.00      5.41588
 C   591 -- C   593       -0.06     -0.00      5.41695
 C   778 -- C  1045       -0.06     -0.00      5.41762
 C   869 -- Li 1095       -0.02      0.00      5.41970
 Li 1095 -- Li 1106        0.12     -0.00      5.41980
 Li 1197 -- Li 1212        0.14     -0.00      5.42040
 C   615 -- C   680       -0.05      0.00      5.42044
 Li 1133 -- Li 1151        0.12     -0.00      5.42076
 C   579 -- C   592       -0.05      0.00      5.42087
 Li 1154 -- Li 1170        0.12     -0.00      5.42108
 C   622 -- C   660       -0.06     -0.00      5.42132
 C   583 -- C   603       -0.06     -0.00      5.42151
 C   596 -- C   609       -0.05     -0.00      5.42199
 C   577 -- C   588       -0.05     -0.00      5.42235
 C   634 -- C   800       -0.06     -0.00      5.42472
 C   777 -- C   936       -0.06     -0.00      5.42479
 Li 1142 -- Li 1174        0.10     -0.00      5.42510
 C   618 -- C   631       -0.06     -0.00      5.42512
 C   818 -- C   869       -0.06      0.00      5.42557
 C   601 -- C   614       -0.05     -0.00      5.42732
 Li 1092 -- Li 1120        0.11     -0.00      5.42813
 C   619 -- C   630       -0.05     -0.00      5.42849
 C   590 -- C   624       -0.05     -0.00      5.42864
 Li 1100 -- Li 1118        0.14      0.00      5.42915
 C   616 -- C   629       -0.05     -0.00      5.43129
 C   905 -- C   987       -0.06     -0.00      5.43288
 Li 1125 -- Li 1155        0.11     -0.00      5.43532
 Li 1135 -- Li 1153        0.10     -0.00      5.43559
 Li 1094 -- Li 1109        0.15      0.00      5.43704
 Li 1186 -- Li 1190        0.15      0.00      5.43886
 C   595 -- Li 1148       -0.02      0.00      5.44077
 Li 1139 -- Li 1152        0.11     -0.00      5.44518
 Li 1173 -- Li 1203        0.12     -0.00      5.44684
 Li 1169 -- Li 1182        0.09     -0.00      5.44955
 Li 1102 -- Li 1134        0.11     -0.00      5.45066
 Li 1092 -- Li 1134        0.11     -0.00      5.45389
 C   602 -- Li 1148       -0.04     -0.00      5.45830
 Li 1165 -- Li 1169        0.09     -0.00      5.46322
 Li 1196 -- Li 1197        0.11      0.00      5.46490
 Li 1172 -- Li 1203        0.09      0.00      5.46492
 Li 1092 -- Li 1103        0.12      0.00      5.46546
 Li 1149 -- Li 1166        0.11     -0.00      5.47227
 Li 1118 -- Li 1131        0.15     -0.00      5.47276
 Li 1116 -- Li 1150        0.13     -0.00      5.47311
 Li 1135 -- Li 1166        0.10     -0.00      5.47390
 Li 1098 -- Li 1102        0.06     -0.00      5.47441
 C   627 -- Li 1172       -0.02      0.00      5.48384
 C   745 -- Li 1123       -0.04     -0.00      5.48570
 Li 1181 -- Li 1187        0.10     -0.00      5.48601
 Li 1197 -- Li 1211        0.09     -0.00      5.48604
 Li 1175 -- Li 1190        0.15     -0.00      5.48908
 Li 1199 -- Li 1213        0.11     -0.00      5.48942
 Li 1132 -- Li 1136        0.12     -0.00      5.49026
 C   624 -- Li 1123       -0.05     -0.00      5.49091
 Li 1125 -- Li 1140        0.11     -0.00      5.49482
 Li 1146 -- Li 1162        0.11     -0.00      5.49589
 Li 1195 -- Li 1196        0.16     -0.00      5.50074
 Li 1089 -- Li 1106        0.07      0.00      5.50086
 Li 1167 -- Li 1181        0.16     -0.00      5.50369
 Li 1116 -- Li 1147        0.14     -0.00      5.50547
 Li 1092 -- Li 1106        0.06      0.00      5.50608
 Li 1097 -- Li 1125        0.12      0.00      5.50836
 Li 1164 -- Li 1196        0.11      0.00      5.50948
 Li 1139 -- Li 1155        0.10     -0.00      5.51221
 C   601 -- Li 1133       -0.05      0.00      5.51636
 Li 1164 -- Li 1180        0.12     -0.00      5.51751
 Li 1138 -- Li 1151        0.09     -0.00      5.51994
 Li 1105 -- Li 1109        0.12      0.00      5.52069
 Li 1187 -- Li 1206        0.13     -0.00      5.52123
 Li 1105 -- Li 1122        0.12     -0.00      5.52390
 Li 1168 -- Li 1210        0.05     -0.00      5.52899
 Li 1198 -- Li 1215        0.14     -0.00      5.53191
 Li 1134 -- Li 1139        0.10     -0.00      5.53398
 Li 1102 -- Li 1129        0.07     -0.00      5.53538
 Li 1148 -- Li 1179        0.10     -0.00      5.53800
 Li 1114 -- Li 1130        0.16     -0.00      5.54401
 C   583 -- Li 1179       -0.03      0.00      5.54409
 Li 1105 -- Li 1140        0.13     -0.00      5.54618
 Li 1141 -- Li 1173        0.14     -0.00      5.54628
 Li 1158 -- Li 1174        0.16      0.00      5.54682
 Li 1183 -- Li 1198        0.10     -0.00      5.54740
 Li 1185 -- Li 1200        0.09      0.00      5.55291
 Li 1106 -- Li 1120        0.10     -0.00      5.55821
 Li 1140 -- Li 1153        0.10     -0.00      5.55870
 Li 1130 -- Li 1148        0.11      0.00      5.55940
 Li 1118 -- Li 1121        0.10      0.00      5.56067
 Li 1106 -- Li 1111        0.12     -0.00      5.56101
 Li 1130 -- Li 1161        0.10     -0.00      5.56395
 Li 1187 -- Li 1201        0.09     -0.00      5.56974
 C   999 -- Li 1095       -0.02     -0.00      5.57120
 Li 1187 -- Li 1202        0.14     -0.00      5.57588
 Li 1174 -- Li 1189        0.11      0.00      5.58037
 Li 1118 -- Li 1135        0.10      0.00      5.58040
 Li 1145 -- Li 1161        0.15      0.00      5.58252
 Li 1173 -- Li 1174        0.09      0.00      5.58349
 Li 1200 -- Li 1213        0.16     -0.00      5.58373
 Li 1169 -- Li 1199        0.11     -0.00      5.58489
 C  1020 -- Li 1188       -0.03     -0.00      5.58745
 Li 1160 -- Li 1179        0.09     -0.00      5.59425
 Li 1170 -- Li 1187        0.11     -0.00      5.60376
 Li 1196 -- Li 1207        0.11      0.00      5.60521
 Li 1102 -- Li 1133        0.06      0.00      5.60654
 Li 1130 -- Li 1160        0.12     -0.00      5.60661
 Li 1211 -- Li 1214        0.16     -0.00      5.61298
 Li 1165 -- Li 1183        0.09     -0.00      5.61327
 Li 1152 -- Li 1184        0.09      0.00      5.61559
 Li 1191 -- Li 1195        0.08     -0.00      5.62075
 C   577 -- Li 1133       -0.03      0.00      5.62451
 Li 1171 -- Li 1187        0.13     -0.00      5.62560
 Li 1192 -- Li 1196        0.13      0.00      5.62577
 Li 1168 -- Li 1182        0.11     -0.00      5.62687
 Li 1142 -- Li 1157        0.12      0.00      5.63119
 Li 1099 -- Li 1117        0.12     -0.00      5.63171
 Li 1169 -- Li 1170        0.09     -0.00      5.63354
 Li 1118 -- Li 1119        0.11     -0.00      5.63482
 C   638 -- Li 1179       -0.03      0.00      5.63610
 Li 1119 -- Li 1150        0.10     -0.00      5.63761
 Li 1182 -- Li 1197        0.09     -0.00      5.63863
 Li 1195 -- Li 1207        0.13     -0.00      5.63953
 Li 1189 -- Li 1203        0.15     -0.00      5.64348
 Li 1164 -- Li 1165        0.11      0.00      5.64466
 C   671 -- Li 1203       -0.03      0.00      5.64472
 Li 1185 -- Li 1186        0.13     -0.00      5.64806
 C   598 -- Li 1133       -0.04     -0.00      5.64892
 Li 1104 -- Li 1108        0.13      0.00      5.65049
 C   693 -- Li 1160       -0.03     -0.00      5.65110
 C   652 -- Li 1213       -0.04     -0.00      5.65388
 Li 1149 -- Li 1161        0.09     -0.00      5.65729
 C   581 -- Li 1172       -0.02      0.00      5.65998
 Li 1094 -- Li 1122        0.14     -0.00      5.66294
 Li 1186 -- Li 1189        0.13     -0.00      5.66791
=============================================================


============== Orbital energy and occupancy information for spin 1 =============

      Total number of orbitals:    5051
        Occupancy sum (kernel):    2318.716729784
   Occupancy sum (eigenvalues):    2318.716729784
                 HOMO-LUMO gap:       0.000642322 Eh
                 Mid-gap level:      -0.164812731 Eh

                        Orbital | Energy (Eh) | Occupancy
                            1    -1.937064202   1.0000000
                        .......   ...........   .........
                         2310    -0.170734857   0.7770131
                         2311    -0.170318218   0.7571349
                         2312    -0.169866847   0.7334305
                         2313    -0.169508584   0.7144313
                         2314    -0.168180038   0.6355760
                         2315    -0.167432935   0.5871805
                         2316    -0.166876597   0.5498722
                         2317    -0.166393594   0.5169913
                         2318    -0.165739332   0.4720472
                         2319    -0.165133892   0.4320118
                        ....... -- gap at 0K -- .........
                         2320    -0.164491570   0.3898029
                         2321    -0.163740399   0.3433213
                         2322    -0.163435849   0.3247154
                         2323    -0.163248411   0.3140629
                         2324    -0.162912780   0.2943548
                         2325    -0.162136765   0.2522206
                         2326    -0.161917516   0.2411416
                         2327    -0.161773369   0.2342946
                         2328    -0.161437042   0.2183547
                         2329    -0.160553979   0.1801273
                        .......   ...........   .........
                         5051     0.717996379   0.0000000

================================================================================

============== Orbital energy and occupancy information for spin 2 =============

      Total number of orbitals:    5051
        Occupancy sum (kernel):    2318.716729784
   Occupancy sum (eigenvalues):    2318.716729784
                 HOMO-LUMO gap:       0.000642322 Eh
                 Mid-gap level:      -0.164812731 Eh

                        Orbital | Energy (Eh) | Occupancy
                            1    -1.937064202   1.0000000
                        .......   ...........   .........
                         2310    -0.170734857   0.7770131
                         2311    -0.170318218   0.7571349
                         2312    -0.169866847   0.7334305
                         2313    -0.169508584   0.7144313
                         2314    -0.168180038   0.6355760
                         2315    -0.167432935   0.5871805
                         2316    -0.166876597   0.5498722
                         2317    -0.166393594   0.5169913
                         2318    -0.165739332   0.4720472
                         2319    -0.165133892   0.4320118
                        ....... -- gap at 0K -- .........
                         2320    -0.164491570   0.3898029
                         2321    -0.163740399   0.3433213
                         2322    -0.163435849   0.3247154
                         2323    -0.163248411   0.3140629
                         2324    -0.162912780   0.2943548
                         2325    -0.162136765   0.2522206
                         2326    -0.161917516   0.2411416
                         2327    -0.161773369   0.2342946
                         2328    -0.161437042   0.2183547
                         2329    -0.160553979   0.1801273
                        .......   ...........   .........
                         5051     0.717996379   0.0000000

================================================================================

===================== Writing canonical molecular orbitals =====================
    Spin 1
| Orbital  Energy (eV)  Norm     |
| HOMO-5   -4.57641169  1.000000 | Writing "graphite_HOMO-5_UP.dx" ... done
| HOMO-4   -4.55608200  1.000000 | Writing "graphite_HOMO-4_UP.dx" ... done
| HOMO-3   -4.54094327  1.000000 | Writing "graphite_HOMO-3_UP.dx" ... done
| HOMO-2   -4.52780008  1.000000 | Writing "graphite_HOMO-2_UP.dx" ... done
| HOMO-1   -4.50999672  1.000000 | Writing "graphite_HOMO-1_UP.dx" ... done
| HOMO     -4.49352185  1.000000 | Writing "graphite_HOMO_UP.dx" ... done
| LUMO     -4.47604338  1.000000 | Writing "graphite_LUMO_UP.dx" ... done
| LUMO+1   -4.45560297  1.000000 | Writing "graphite_LUMO+1_UP.dx" ... done
| LUMO+2   -4.44731574  1.000000 | Writing "graphite_LUMO+2_UP.dx" ... done
| LUMO+3   -4.44221531  1.000000 | Writing "graphite_LUMO+3_UP.dx" ... done
| LUMO+4   -4.43308232  1.000000 | Writing "graphite_LUMO+4_UP.dx" ... done
| LUMO+5   -4.41196587  1.000000 | Writing "graphite_LUMO+5_UP.dx" ... done
================================================================================

===================== Writing canonical molecular orbitals =====================
    Spin 2
| Orbital  Energy (eV)  Norm     |
| HOMO-5   -4.57641169  1.000000 | Writing "graphite_HOMO-5_DN.dx" ... done
| HOMO-4   -4.55608200  1.000000 | Writing "graphite_HOMO-4_DN.dx" ... done
| HOMO-3   -4.54094327  1.000000 | Writing "graphite_HOMO-3_DN.dx" ... done
| HOMO-2   -4.52780008  1.000000 | Writing "graphite_HOMO-2_DN.dx" ... done
| HOMO-1   -4.50999672  1.000000 | Writing "graphite_HOMO-1_DN.dx" ...onetep_launcher: ONETEP seems to have finished with an ERROR. Code: 38.
                 Brought to you by PID 71510 on red6089.
