1215      
Geometry optimisation iteration:     1 | Lattice="34.1692 0.0000 0.0000  0.0000 39.4552 0.0000  0.0000 0.0000 100.0000"
Li    2.167215    1.173165    4.742300
Li    2.167484    6.089552    4.742630
Li    2.167952   11.013295    4.776840
Li    2.164933   15.971546    4.828425
Li    2.163516   20.878554    4.842039
Li    2.165462   25.824559    4.821121
Li    2.166661   30.772768    4.793982
Li    2.165590   35.681644    4.763965
Li   10.718578    1.172355    4.795451
Li   10.719380    6.086522    4.800195
Li   10.719923   11.010008    4.816301
Li   10.725783   15.956585    4.798629
Li   10.721012   20.881970    4.808983
Li   10.709126   25.836025    4.823103
Li   10.711914   30.786910    4.840485
Li   10.721732   35.679613    4.824704
Li   19.267188    1.172295    4.844281
Li   19.269029    6.089566    4.854497
Li   19.290383   10.998671    4.827209
Li   19.284971   15.953652    4.737315
Li   19.289852   20.884393    4.705834
Li   19.288613   25.830234    4.803116
Li   19.259960   30.790249    4.857589
Li   19.266643   35.679457    4.854083
Li   27.799787    1.172214    4.770508
Li   27.797882    6.087121    4.789260
Li   27.793059   11.017661    4.819886
Li   27.797759   15.968250    4.811342
Li   27.807223   20.877740    4.786241
Li   27.799024   25.827140    4.787372
Li   27.798506   30.770961    4.798197
Li   27.797359   35.680828    4.790247
Li    6.440853    3.618396    4.754778
Li    6.439473    8.564240    4.771263
Li    6.435346   13.473115    4.801575
Li    6.424274   18.418480    4.814123
Li    6.424815   23.373122    4.817102
Li    6.436139   28.290068    4.824664
Li    6.443391   33.229920    4.807691
Li    6.441229   38.167431    4.772497
Li   15.000928    3.620587    4.835816
Li   14.997866    8.555144    4.839159
Li   14.974422   13.471663    4.804346
Li   14.971148   18.422586    4.738742
Li   14.975305   23.352648    4.765506
Li   14.985209   28.314660    4.817302
Li   15.001159   33.239802    4.859347
Li   15.000219   38.158432    4.839502
Li   23.529093    3.620378    4.822035
Li   23.527973    8.567346    4.841383
Li   23.551567   13.470657    4.808047
Li   23.558662   18.409402    4.745935
Li   23.546333   23.390009    4.765245
Li   23.557725   28.283778    4.799314
Li   23.534225   33.235219    4.828776
Li   23.530764   38.160251    4.818954
Li   32.064303    3.618329    4.744997
Li   32.066533    8.564468    4.770309
Li   32.063161   13.483548    4.818082
Li   32.065194   18.421891    4.839867
Li   32.064832   23.368100    4.823073
Li   32.063027   28.280917    4.799373
Li   32.064567   33.230834    4.777049
Li   32.064271   38.164798    4.752488
C    17.830350   20.891399    2.856726
C    18.543896   22.128352    2.868798
C    18.544014   19.654519    2.846670
C    20.686036   20.891530    2.852199
C    19.971975   22.128327    2.864588
C    19.971967   19.654305    2.845454
C    16.409800   20.891324    2.881344
C    22.106317   20.891294    2.881501
C    17.834140   23.357962    2.912822
C    20.681897   23.358270    2.903038
C    17.833736   18.423836    2.867372
C    20.682240   18.423711    2.867235
C    15.699769   22.121898    2.891836
C    16.413482   23.358209    2.907773
C    15.699416   19.660686    2.869086
C    22.816159   22.121890    2.886875
C    22.102365   23.357902    2.892790
C    16.413023   18.423852    2.865506
C    22.816394   19.660559    2.871185
C    22.102712   18.423850    2.866764
C    18.544368   24.588532    2.926430
C    19.971618   24.588346    2.916855
C    18.544229   17.193074    2.864943
C    19.971772   17.193118    2.862316
C    14.272176   22.121613    2.908651
C    14.271836   19.661006    2.886688
C    24.243123   22.121453    2.894308
C    22.815684   24.594507    2.900802
C    15.700291   24.594843    2.933248
C    13.562306   20.891314    2.921221
C    24.243436   19.660806    2.879195
C    15.699726   17.187089    2.884754
C    13.558362   23.358419    2.932071
C    20.685444   25.824734    2.931772
C    22.816054   17.187040    2.878894
C    24.243301   24.594118    2.896918
C    24.957235   23.357503    2.896834
C    24.953709   20.891133    2.903415
C    17.830854   25.824401    2.952510
C    14.272397   24.595086    2.940723
C    22.105685   25.824379    2.932158
C     0.745751    6.095961    2.851434
C     1.459508    7.331563    2.856727
C     2.886400    7.331143    2.857658
C     1.459831    4.860154    2.846577
C    16.410505   25.824318    2.967416
C    33.494743    6.096021    2.869012
C     2.886677    4.859941    2.848442
C     3.600455    6.095650    2.854515
C    13.557887   18.423915    2.896039
C    20.685861   15.956641    2.879456
C    17.830717   15.957074    2.889769
C     0.748779    8.561247    2.879897
C    32.784014    4.865881    2.855753
C     0.749048    3.629868    2.856649
C    33.497901    3.629815    2.848811
C    32.784077    7.325925    2.871151
C     3.596712    8.560970    2.879828
C     5.020808    6.095172    2.874658
C     3.597507    3.629689    2.860492
C    33.497874    8.561503    2.876444
C    14.272039   17.187065    2.896155
C    31.357409    4.865818    2.863472
C     5.018065    3.629362    2.856564
C     1.459251    9.791458    2.879844
C     1.459773    2.399252    2.846231
C     5.731719    4.865214    2.864960
C    12.142109   20.891289    2.935108
C     2.885897    9.791139    2.879244
C     2.886897    2.399189    2.848574
C    32.784113    2.393347    2.848653
C    16.410110   15.957387    2.914911
C    30.643266    3.629663    2.861051
C     5.017074    8.560592    2.876566
C     5.731190    7.325019    2.875611
C    31.357134    2.393213    2.853214
C    12.138769   23.357770    2.967108
C    22.106101   15.956899    2.904167
C    24.957547   18.423898    2.882280
C     0.745864    1.162850    2.849238
C    30.646957    6.095650    2.890099
C     5.731783    2.393090    2.860722
C    31.357544    7.325519    2.882138
C    33.494634    1.162754    2.860287
C     7.158606    4.864979    2.878305
C     3.600686    1.162864    2.855235
C    26.377680   23.356822    2.916425
C    24.953563   25.824222    2.916500
C    24.243587   17.186996    2.885909
C     5.021207    1.162830    2.872008
C     7.158999    2.392892    2.872239
C    30.646530    1.162832    2.870301
C    29.223203    3.629491    2.886092
C    11.428695   22.127779    2.954519
C     0.745376   11.027285    2.899338
C     1.459826   39.381885    2.856370
C     7.872485    3.629086    2.881245
C    32.784399    9.797414    2.894387
C    32.783969   39.387545    2.855057
C     2.886691   39.381973    2.860082
C    19.971895   27.061270    2.956521
C     3.599549   11.027156    2.895895
C    26.374310   20.890944    2.901663
C    18.544318   27.060928    2.967504
C    31.357211   39.387699    2.859232
C     7.158127    7.324403    2.890749
C    28.512562    2.399199    2.878220
C    22.815633   27.054553    2.929344
C    29.226106    1.162941    2.871882
C     0.748961   38.151762    2.873022
C     5.730518    9.796702    2.891579
C     7.868662    6.094673    2.904815
C    33.497983   38.151696    2.861318
C    12.138355   18.424318    2.935344
C    13.562864   25.824851    2.976516
C    29.226745    6.095207    2.894346
C    11.428400   19.654673    2.938377
C    28.512764    4.859740    2.891980
C    33.494772   11.027204    2.919251
C     7.869184    1.162858    2.896366
C     5.731810   39.387865    2.873171
C     3.597357   38.152008    2.882421
C     5.019744   11.026601    2.911639
C     9.292673    3.628952    2.911263
C    27.088281   22.126748    2.909032
C    30.643762    8.561129    2.899726
C     1.459787   36.921766    2.870151
C    24.242878   27.054165    2.916112
C    32.784085   36.916120    2.869582
C    26.373921   25.823526    2.906377
C    27.087896   24.587035    2.907872
C    30.643258   38.151868    2.870947
C     2.885761   12.263190    2.913654
C     1.458965   12.263363    2.916487
C     2.886612   36.922060    2.876126
C     0.745804   35.686125    2.874171
C    11.428876   24.588087    2.969580
C    18.544243   14.720727    2.907768
C    19.972165   14.720490    2.901786
C    28.512610   39.382142    2.884558
C     7.158814   39.388074    2.885087
C     5.017788   38.152223    2.879187
C    31.357687    9.797218    2.905711
C    27.085671    2.399225    2.895361
C    33.494794   35.686229    2.886182
C    15.700471   27.054316    2.969743
C     9.289637    1.162913    2.903498
C    10.002829    2.398889    2.908242
C    31.357432   36.916161    2.874929
C     1.459555   34.450073    2.882665
C    29.223389   38.152243    2.895926
C     7.871632    8.560102    2.906095
C    13.562768   15.957387    2.935613
C     7.157773    9.796313    2.905486
C     0.748883   33.220314    2.902455
C     9.289128    6.094289    2.911279
C    32.784374   34.456102    2.884276
C    10.002754    4.858861    2.913285
C    26.377701   18.424246    2.913332
C    33.498103   33.220215    2.891912
C    12.142784   25.824451    2.971432
C    10.001084   22.127638    2.964616
C     3.600449   35.686404    2.888528
C    26.372086    1.162949    2.904363
C    27.086191    4.859125    2.909648
C     2.886511   34.450397    2.890804
C    27.088206   19.654599    2.906059
C    27.085961   39.382204    2.900104
C    26.375770    3.629161    2.923557
C     1.459350   31.990395    2.903059
C    28.513398    7.330665    2.914012
C    14.273016   27.054563    2.970944
C    15.700353   14.727682    2.933471
C    30.647127   35.686453    2.899137
C     0.745497   30.754800    2.913267
C    11.430049    2.399001    2.925688
C    29.224089    8.560375    2.929159
C     5.731376   36.916709    2.896617
C     5.730292   12.256787    2.916571
C    32.784595   31.984370    2.903453
C    31.357730   34.456461    2.889830
C    32.784666   12.257182    2.930285
C    20.682015   28.290713    2.982595
C    22.101968   28.290423    2.952742
C    33.494933   30.754737    2.924814
C    11.428633   17.194072    2.935278
C     7.872319   38.152457    2.904960
C     2.886113   31.990715    2.910969
C    10.000873   19.654814    2.952982
C    10.002685   39.382302    2.920650
C    10.001502   24.587576    2.973227
C    24.953574   15.957010    2.923649
C     3.596101   13.493018    2.942731
C     0.748785   13.492996    2.950365
C    22.816304   14.726804    2.920508
C    28.514868   24.586742    2.916510
C    27.087610   27.059895    2.912556
C     5.020588   35.686986    2.913224
C     3.596803   33.220567    2.919035
C    28.513096   36.922303    2.900356
C     9.291157   23.357526    2.982452
C     1.459195   29.519171    2.926470
C    28.515311   22.126809    2.919574
C     9.287212   20.891260    2.960178
C    17.834457   28.290410    2.997125
C    14.272940   14.727764    2.939043
C    24.952419    1.162894    2.936554
C    12.142601   15.957839    2.934759
C    24.956907   28.290350    2.921826
C    12.143390    1.162923    2.936353
C    30.647673   11.026892    2.940553
C    29.226987   35.686754    2.899995
C    11.429942    4.858394    2.930128
C    12.139911    3.628761    2.948907
C     9.291895    8.559469    2.936553
C     5.016298   13.492622    2.928536
C     7.867887   11.026315    2.936829
C    31.358055   31.984510    2.906724
C    32.784756   29.524899    2.922097
C     7.158342   36.916893    2.910220
C    10.002394    7.329721    2.926427
C    30.644122   33.220428    2.901166
C    26.376024   38.152587    2.927594
C     2.885864   29.519297    2.932606
C     9.292326   38.152776    2.934895
C    33.498259   13.492824    2.943279
C     3.599887   30.755004    2.927334
C    24.955753    3.628826    2.932725
C    11.429806   39.382236    2.935484
C     0.748895   28.289281    2.945217
C     7.157441   12.256359    2.926721
C    16.414316   28.290280    2.978797
C    28.514620   27.059555    2.916286
C    29.225218   23.356592    2.937600
C    24.242449    2.392900    2.935884
C    26.372587    6.094782    2.928691
C    26.377116   28.290001    2.931355
C    33.498384   28.289078    2.929226
C    29.228364   25.823000    2.918802
C    31.358144   12.256817    2.937161
C    27.086565   36.922842    2.914351
C     5.016962   33.221007    2.922044
C    31.358322   29.525085    2.921409
C    27.086709    7.330443    2.930256
C    24.243101   14.727124    2.925883
C     2.885569   14.722788    2.947352
C     5.730882   34.456928    2.919191
C    30.647798   30.754853    2.928780
C    27.087861   17.193819    2.920688
C     1.459017   14.722791    2.950558
C    13.563715    1.162887    2.964024
C    24.242447   39.388281    2.935143
C     9.287739   25.824297    2.971401
C     9.290879   18.424400    2.965792
C    10.001216   17.194399    2.947593
C    11.429160   27.061264    2.976884
C    28.515448   19.654480    2.921907
C     3.596142   28.289408    2.955665
C    17.834706   13.491905    2.955702
C     7.871117   23.357272    2.963623
C     1.459018   27.059089    2.942138
C    30.644607   28.289310    2.922825
C    20.682551   13.491243    2.943413
C    29.224650   28.289860    2.933424
C    28.513650   34.450813    2.911038
C    26.373854   15.957593    2.925642
C    32.785074   27.052780    2.932134
C    28.514006    9.790345    2.936490
C    29.224281   33.220936    2.922338
C    13.560577    3.628549    2.954379
C    24.956015   38.152916    2.932053
C     5.019819   30.755388    2.951248
C    31.358274   27.052858    2.926521
C     2.885826   27.059301    2.946351
C    29.229457   20.890900    2.927699
C    30.648330   25.822661    2.939878
C    14.273668    2.392694    2.957591
C    16.414121   13.492169    2.950087
C     9.288209   11.025897    2.940516
C     7.867057   20.891405    2.972595
C    29.227817   11.026378    2.940963
C     5.730269   14.728484    2.940345
C    22.815692    2.392680    2.949320
C    28.514209   29.519735    2.923985
C    10.001847    9.789437    2.939153
C    22.815735   29.526326    2.954531
C    29.227941   30.755383    2.920590
C    24.242867   29.526285    2.937836
C     7.157315   24.593763    2.958250
C    22.102752   13.491468    2.934991
C     7.867479   25.823791    2.977140
C     7.868290   35.687381    2.941970
C     7.871254   13.492379    2.941079
C     5.730476   31.984880    2.937653
C     5.016383   28.289695    2.949622
C    12.143522    6.094052    2.942890
C    24.242681    4.864707    2.948629
C    10.001457   27.060780    2.974833
C    13.559058   28.290724    2.976960
C     7.157066   22.121326    2.959538
C    11.429115   14.721427    2.947109
C    27.087451   29.520018    2.925730
C     0.745507   25.822618    2.945959
C    11.429672    7.329751    2.940922
C    19.971705   29.520122    2.990561
C    33.495107   25.822594    2.953858
C    12.139601   38.152900    2.963333
C    30.645188   23.356513    2.939675
C     7.157921   34.457516    2.932226
C    22.815657   39.388466    2.948244
C    22.105984    1.162854    2.965813
C    10.002333   36.923077    2.942297
C    14.273627   39.388392    2.960780
C    28.513977   31.991059    2.919075
C    31.358593   24.592500    2.938930
C    32.784831   14.728558    2.955910
C     5.730390   29.525516    2.950331
C     7.157371   14.728230    2.943499
C     3.599429   25.822909    2.950620
C    26.372850   35.687187    2.925859
C    24.952963    6.094315    2.960378
C     9.287709   15.957871    2.948774
C     5.730248   27.053557    2.953851
C    18.544613   29.519890    2.995328
C     5.019603   25.823419    2.963462
C     3.599316   15.958573    2.952170
C    15.701325    2.392579    2.963716
C     7.157426   27.053803    2.961391
C    13.559203   13.491712    2.951043
C     7.870756   18.424838    2.954761
C     5.729948   24.593460    2.950660
C    10.001449   14.721787    2.949383
C     0.745279   15.958693    2.958889
C     9.291374   13.491986    2.961982
C    30.644405   13.492572    2.949479
C    27.086689   34.451057    2.922916
C     5.019472   15.958126    2.959471
C    12.138949   28.290801    2.993492
C     7.156887   19.661288    2.955678
C    32.785202   24.592348    2.946685
C    10.001681   12.262092    2.951944
C    28.514904   17.194197    2.936944
C    16.411196    1.162953    2.978789
C     7.867586   15.958128    2.961504
C     2.885706   24.586489    2.954027
C    29.225258   18.424542    2.950793
C    22.102459    3.628734    2.958559
C     1.458901   24.586192    2.953893
C    13.560206   38.153060    2.962028
C    12.139013   13.492041    2.965785
C    15.701175   39.388606    2.965782
C    26.376841    8.560014    2.959850
C    20.685786    1.162885    2.963754
C     9.288667   35.687604    2.944121
C    24.242642   36.917361    2.944055
C    14.273822    4.864188    2.962660
C     5.015686   23.356953    2.951977
C    26.373290   30.755479    2.931838
C    11.429351   36.923413    2.953000
C     7.157007   17.188145    2.950045
C     5.729832   22.121043    2.955404
C     7.871419   28.290108    2.966662
C    33.495014   15.958458    2.974339
C    17.831915    1.162978    2.970537
C    30.648794   20.891040    2.959577
C    31.358297   14.728535    2.955499
C     7.157357   29.525924    2.959956
C    27.087288    9.789708    2.947036
C     7.157544   31.985171    2.948590
C    31.358864   22.120879    2.951363
C    27.087092   31.991557    2.927927
C    19.972591    2.398921    2.967226
C     9.291341   28.290815    2.987983
C    22.815922    4.864625    2.960242
C    27.087798   14.721822    2.942597
C    15.700562   29.526572    2.980948
C    22.102161   38.152876    2.956575
C     2.885642   17.194884    2.956773
C    28.514339   12.262402    2.951123
C    18.545232    2.398926    2.970140
C     3.595779   23.356591    2.969351
C     5.729904   17.188267    2.947870
C    24.953355   30.755759    2.954393
C    13.563756    6.093799    2.970877
C    19.972395   39.382460    2.969131
C    16.414852    3.628573    2.967667
C    11.429421    9.789044    2.950300
C    24.957401   13.491595    2.939008
C    24.952938   35.687708    2.952961
C    33.498628   23.356482    2.957245
C     7.871433   33.221317    2.946052
C    11.429006   12.261919    2.956926
C     0.748882   23.356468    2.972815
C     1.458761   17.195070    2.960611
C    29.224680   13.492144    2.964384
C    26.376638   33.221159    2.945650
C    18.545209   39.382545    2.972538
C     5.729625   19.661512    2.953119
C    20.682396    3.628757    2.979144
C     5.019291   20.891403    2.969651
C    12.139583    8.559335    2.965578
C    14.272654   29.526968    2.977868
C    29.228515   15.958034    2.948836
C     5.015660   18.425028    2.950492
C    28.514594   14.722065    2.949469
C    22.105805   30.755571    2.983671
C     7.867825   30.755489    2.972812
C    18.545160   12.261956    2.961784
C    17.835499    3.628756    2.983761
C    32.785144   22.120737    2.961044
C    19.972346   12.261874    2.952817
C     2.885296   22.126598    2.965034
C    26.377315   13.492155    2.958243
C    22.815799   36.917321    2.955176
C    30.648331   15.958356    2.969740
C    15.701350    4.864375    2.969106
C    30.645331   18.424804    2.956048
C    20.682181   38.152790    2.979377
C     3.595773   18.425035    2.968985
C    16.414769   38.153066    2.969989
C    20.685496   30.755677    2.985714
C     1.458973   22.126601    2.966876
C    15.700858   12.255634    2.961649
C    31.358851   19.660934    2.959655
C    14.272980   12.255400    2.957987
C    32.785170   17.188601    2.966810
C     3.599063   20.891115    2.963486
C    24.243119    7.324123    2.962980
C    12.142867   11.025568    2.957535
C    10.001813   29.520381    2.978881
C     0.748747   18.425046    2.978566
C    17.835330   38.152933    2.985855
C    31.358629   17.188394    2.962565
C     2.885471   19.655234    2.963345
C    27.087514   12.262117    2.951577
C    11.428913   29.520575    2.982993
C     0.745287   20.891051    2.968367
C    33.494987   20.891057    2.979662
C    22.816318   12.255412    2.946207
C    14.273486   36.917650    2.969644
C    10.001878   34.451593    2.954596
C     1.458798   19.655193    2.966737
C    26.373640   11.026086    2.952187
C    33.498542   18.424967    2.969094
C    24.242872   31.985470    2.954358
C    24.956736    8.559637    2.960794
C    24.956464   33.221473    2.947648
C    32.785215   19.661196    2.968237
C     9.291565   33.221716    2.967738
C     9.287977   30.755895    2.969056
C    24.243005   34.457593    2.950856
C    24.243604   12.255288    2.945292
C    17.830948   30.755676    2.994249
C    12.142948   35.687782    2.962300
C    19.972578    4.858462    2.974448
C    22.106210    6.094227    2.982207
C    15.701052   36.917509    2.972298
C    18.545354    4.858478    2.976612
C    22.816010   31.985368    2.966350
C    19.972227   36.923115    2.974302
C    13.563179   11.025238    2.975747
C    16.410587   30.755950    3.002446
C    14.273680    7.323544    2.966907
C    22.105922   35.687659    2.975735
C    13.560348    8.559287    2.965305
C    10.001682   31.991941    2.964806
C    18.545089   36.923270    2.977587
C    11.429404   34.451534    2.962167
C    13.563428   35.687991    2.982794
C    24.953684   11.025598    2.966725
C    22.816343    7.323740    2.970281
C    12.142605   30.756127    2.980693
C    22.815833   34.457806    2.961007
C    13.562859   30.756472    2.996002
C    16.411348    6.093887    2.986629
C    20.686055    6.094068    2.975258
C    19.972239   31.991668    2.984227
C    24.243354    9.795635    2.962443
C    20.685617   35.687552    2.972344
C    22.102518   33.221522    2.969182
C    16.411180   11.025949    2.985027
C    11.429218   31.992180    2.971775
C    17.831983    6.093968    2.979171
C    22.106412   11.025783    2.968362
C    17.831838   11.025949    2.973225
C    20.686275   11.025539    2.957584
C    14.273445    9.795502    2.969539
C    18.544488   31.991747    2.987532
C    15.701301    7.323420    2.972438
C    16.410957   35.687834    2.989391
C    17.831627   35.687636    2.979424
C    12.139365   33.221785    2.984499
C    20.682245   33.221627    2.989196
C    15.700525   31.985545    2.989174
C    14.273121   34.457866    2.978687
C    19.972383   34.451412    2.977155
C    14.273070   31.985865    2.987523
C    22.816372    9.795559    2.963880
C    22.102919    8.559449    2.969601
C    13.560051   33.221910    2.981935
C    15.701297    9.795781    2.973561
C    15.700900   34.457941    2.980143
C    18.544700   34.451517    2.980557
C    19.972551    7.329468    2.977039
C    17.834724   33.221610    2.996019
C    18.545244    7.329432    2.979118
C    16.414035   33.221630    2.984766
C    16.414678    8.559446    2.974346
C    19.972878    9.788866    2.964558
C    18.544902    9.789176    2.971207
C    20.682655    8.559085    2.982551
C    17.835331    8.559297    2.988116
C    17.836079   20.897311    6.521268
C    17.840169   18.419564    6.471352
C    18.551188   19.653398    6.528319
C    15.702327   19.659807    6.553377
C    18.552603   22.136155    6.542404
C    19.989462   19.656782    6.547502
C    18.548233   17.188403    6.523033
C    15.699138   17.178994    6.545021
C    19.985071   17.189593    6.550644
C    16.413021   20.894672    6.522997
C    20.698085   18.418441    6.545072
C    20.705337   20.891251    6.547693
C    16.416327   18.418386    6.534459
C    15.702033   22.125875    6.584743
C    17.835050   15.948644    6.558441
C    19.987979   22.135404    6.592710
C    20.701195   15.943082    6.604717
C    18.551681   14.709803    6.636513
C    16.413775   15.947741    6.598539
C    16.419427   23.371833    6.564965
C    22.127360   18.420144    6.586838
C    13.554304   20.892544    6.613689
C    22.131341   20.890865    6.532650
C    20.701647   23.366347    6.580514
C    14.265314   22.128352    6.609949
C    13.553478   18.416292    6.596744
C    19.985574   14.706507    6.594077
C    22.129858   15.942685    6.610125
C    22.124601   23.365466    6.640383
C    14.267194   19.661168    6.586283
C    14.270623   17.180280    6.631984
C    17.841999   23.371058    6.546456
C    13.551095   23.371305    6.635275
C    22.844725   19.659642    6.564431
C    13.557875   15.945703    6.689988
C    22.843084   17.175274    6.610346
C    22.840561   22.123655    6.587210
C    15.701402   24.615342    6.578492
C    12.123551   20.889525    6.659881
C    11.408692   22.135770    6.675921
C    14.269216   14.715296    6.642444
C    24.271722   22.121454    6.590458
C    11.410809   19.647386    6.656657
C    12.118235   23.367426    6.651453
C    11.414526   17.177917    6.642986
C    20.706639   25.840825    6.642901
C    12.125118   18.413737    6.630099
C    14.266281   24.613876    6.615347
C    18.551547   24.601348    6.596554
C    24.982452   20.885080    6.591958
C    19.988809   24.596637    6.679781
C    15.698579   14.712859    6.644270
C     9.973008   19.645952    6.663405
C     9.968706   22.131733    6.676428
C    22.841518   24.610025    6.648077
C    24.273289   19.655451    6.593719
C    22.131927   25.839781    6.652256
C    12.132658   15.943771    6.690115
C    24.984498   23.364462    6.639060
C    16.417306   25.847722    6.558283
C    24.981528   18.418223    6.619891
C    17.839185   13.473593    6.599097
C    20.698393   13.474225    6.645094
C     0.745170    6.094200    6.626950
C     1.458819    4.859480    6.625220
C     0.749075    3.630350    6.614127
C    32.785894    4.865366    6.626647
C    33.499016    3.630622    6.625727
C    33.495694    6.094288    6.617441
C    24.268594   17.177360    6.626521
C     2.885053    4.858706    6.625803
C     9.977537   17.175976    6.617326
C     1.458376    7.328144    6.630386
C    32.785997    2.395002    6.628555
C     1.459370    2.400661    6.626956
C    24.266507   24.607938    6.644628
C     3.595948    3.629459    6.616521
C     2.885748    2.400275    6.627950
C    18.552949   12.242454    6.646747
C     3.598383    6.092678    6.627458
C    31.360380    4.864412    6.631966
C     2.883878    7.326891    6.630637
C    31.359927    2.394469    6.632321
C    17.837843   25.842621    6.627424
C     0.746043    1.165043    6.627708
C    30.646633    3.629508    6.634690
C    33.495832    1.165088    6.617719
C    32.786107    7.322827    6.636897
C     5.015586    3.629040    6.631309
C     0.748295    8.557087    6.627330
C     3.599294    1.165147    6.629897
C    30.649812    1.164929    6.624367
C    32.786162   39.390446    6.631765
C    26.397229   20.889643    6.632333
C    18.553161   27.074990    6.666721
C     1.459570   39.385034    6.628037
C     5.018740    1.165313    6.624160
C     5.729323    2.394019    6.635689
C     5.017913    6.091431    6.619956
C     2.885642   39.385508    6.629493
C    31.360095   39.390785    6.635225
C    33.498904    8.557764    6.642053
C     5.729233    4.863099    6.631785
C     9.255187   20.889778    6.652981
C    30.650315    6.093059    6.629211
C    26.401069   23.363281    6.632085
C    29.230324    1.164964    6.641283
C    29.227034    3.628868    6.632093
C     0.749159   38.155684    6.619529
C     9.259331   23.368146    6.645497
C    33.499207   38.155147    6.631806
C     3.593361    8.554782    6.627834
C    28.516331    2.399962    6.645808
C    22.839335   14.713009    6.650505
C    31.360498    7.322275    6.642852
C     7.155642    2.394241    6.640799
C    16.415964   13.470979    6.613333
C    30.646823   38.155989    6.638882
C    13.554749   13.471968    6.702399
C    19.985684   27.074807    6.705445
C     5.729017   39.392019    6.642551
C     1.457128    9.785592    6.646983
C     9.262263   18.411072    6.638949
C     3.595748   38.156954    6.623685
C    28.516652   39.385378    6.644878
C    32.785913   36.920297    6.635416
C     2.882658    9.783843    6.646654
C     1.458844   36.926878    6.635824
C    31.360523   36.921184    6.639200
C     5.727339    7.318861    6.638962
C    29.227429   38.156618    6.633069
C     7.866241    1.165474    6.636015
C     7.155119    4.862419    6.637957
C     5.015075   38.157455    6.642078
C     7.155445   39.392090    6.648128
C    27.109884   22.129323    6.640020
C     2.884850   36.928040    6.637394
C     5.012427    8.553432    6.643384
C    28.516984    4.857312    6.653692
C    33.495533   35.690983    6.629041
C     7.869093    3.628343    6.642277
C     0.745043   35.691685    6.641430
C    27.090069    2.400077    6.655276
C    29.231248    6.092372    6.652666
C    27.090587   39.385861    6.653639
C    32.786089    9.793018    6.653215
C    32.786389   34.461739    6.647219
C    26.376723    1.165301    6.659198
C    30.650866   35.692458    6.636358
C     9.285740    1.165447    6.657180
C    11.410651   24.605089    6.662999
C    24.976842   25.836518    6.638970
C    28.517723   36.928353    6.654188
C     1.457773   34.457095    6.648235
C     0.743805   11.021584    6.655979
C    15.698514   12.232461    6.656224
C    33.498850   33.226321    6.650871
C    31.360884   34.462885    6.651007
C     0.747889   33.227477    6.641192
C    30.647703    8.557134    6.655264
C     3.597744   35.694010    6.645915
C    22.121087   13.475708    6.671732
C     7.153145    7.317822    6.645323
C     7.868977   38.158348    6.655281
C     5.728482   36.923855    6.649300
C    29.232074   35.693533    6.656541
C    26.397306   18.419061    6.634979
C     7.864551    6.089489    6.634350
C    13.552883   25.848058    6.618276
C    26.380746   38.157419    6.652650
C     9.288368    3.627895    6.642765
C     2.883420   34.458942    6.651525
C    26.379893    3.628915    6.654338
C    32.786610   31.991122    6.654202
C     7.835422   20.889573    6.648338
C     3.593760   11.018906    6.653148
C    33.494985   11.022709    6.649764
C    27.107313   24.594040    6.652983
C    24.974071   15.949014    6.639757
C    19.986284   12.243214    6.684962
C     9.999544    2.400073    6.661525
C     9.999886   39.386540    6.664681
C    27.108081   19.652457    6.649819
C    27.090734    4.857397    6.665199
C    27.091903   36.928989    6.664106
C    24.957611    1.165359    6.663705
C     1.456276   31.998729    6.660875
C    14.266928   12.234594    6.688018
C     5.723679    9.787539    6.651993