1215      
Geometry optimisation iteration:    15 | Lattice="34.1692 0.0000 0.0000  0.0000 39.4552 0.0000  0.0000 0.0000 100.0000"
Li    2.168473    1.174184    4.736123
Li    2.168121    6.094291    4.733861
Li    2.168045   11.015255    4.770486
Li    2.164498   15.974400    4.827722
Li    2.162995   20.880091    4.842077
Li    2.164869   25.825539    4.818278
Li    2.166230   30.774124    4.787657
Li    2.166032   35.681261    4.756738
Li   10.718923    1.173926    4.788005
Li   10.719890    6.089386    4.797233
Li   10.722079   11.011874    4.817636
Li   10.728658   15.960846    4.793356
Li   10.720040   20.885111    4.796234
Li   10.711311   25.836633    4.819401
Li   10.713652   30.786481    4.844291
Li   10.722845   35.680438    4.823488
Li   19.267352    1.173855    4.840654
Li   19.268754    6.092854    4.856195
Li   19.289975   11.001229    4.833337
Li   19.284200   15.953931    4.732897
Li   19.286430   20.882896    4.697158
Li   19.290938   25.829750    4.789051
Li   19.259776   30.792282    4.854229
Li   19.266783   35.680175    4.854028
Li   27.798898    1.173537    4.762821
Li   27.797878    6.090033    4.783597
Li   27.793493   11.019842    4.818519
Li   27.798162   15.971486    4.809559
Li   27.805861   20.879547    4.782006
Li   27.798664   25.827329    4.783429
Li   27.799067   30.772763    4.796500
Li   27.797321   35.681725    4.785886
Li    6.442378    3.619608    4.746765
Li    6.439469    8.566539    4.766867
Li    6.434883   13.475958    4.798282
Li    6.426887   18.421426    4.812089
Li    6.426467   23.373229    4.814629
Li    6.437809   28.289923    4.824528
Li    6.443992   33.230656    4.806313
Li    6.442517   38.169935    4.764934
Li   15.001492    3.621389    4.833467
Li   14.999083    8.558910    4.844228
Li   14.973202   13.475444    4.803620
Li   14.976685   18.424859    4.728416
Li   14.975677   23.351053    4.758799
Li   14.984196   28.314733    4.808431
Li   15.002044   33.240118    4.860545
Li   15.000885   38.160449    4.836446
Li   23.529316    3.621385    4.816587
Li   23.527303    8.570040    4.842265
Li   23.548471   13.472710    4.808166
Li   23.561717   18.411176    4.735497
Li   23.550169   23.392506    4.753888
Li   23.559274   28.283244    4.795105
Li   23.533424   33.236819    4.830112
Li   23.530908   38.162526    4.813947
Li   32.063893    3.620748    4.737123
Li   32.066895    8.567970    4.762827
Li   32.064043   13.487272    4.815499
Li   32.066780   18.423319    4.840934
Li   32.066125   23.370198    4.821887
Li   32.064092   28.281413    4.795000
Li   32.065064   33.230815    4.770007
Li   32.063813   38.165562    4.745401
C    17.830758   20.892856    2.837769
C    18.544364   22.129472    2.848489
C    18.544675   19.656186    2.830423
C    20.686677   20.892853    2.835409
C    19.972409   22.129337    2.845684
C    19.972601   19.655911    2.830203
C    16.410076   20.892946    2.861036
C    22.107063   20.892598    2.864559
C    17.834405   23.359096    2.889922
C    20.682449   23.359261    2.882288
C    17.834374   18.425621    2.852892
C    20.683028   18.425478    2.854888
C    15.699776   22.123358    2.870148
C    16.413614   23.359396    2.885507
C    15.699621   19.662471    2.851692
C    22.816969   22.123046    2.869556
C    22.103092   23.358929    2.874687
C    16.413585   18.425753    2.850036
C    22.817276   19.662050    2.857068
C    22.103536   18.425574    2.855243
C    18.544722   24.589653    2.904511
C    19.972036   24.589372    2.895216
C    18.544919   17.194822    2.854493
C    19.972464   17.194905    2.853045
C    14.272198   22.123084    2.887494
C    14.271953   19.662852    2.870250
C    24.243802   22.122626    2.877367
C    22.816398   24.595595    2.883673
C    15.700286   24.595889    2.912290
C    13.562140   20.892995    2.902343
C    24.244181   19.662324    2.864661
C    15.699996   17.188921    2.870662
C    13.558232   23.359616    2.911897
C    20.686015   25.825875    2.912126
C    22.817032   17.188854    2.869309
C    24.243977   24.595382    2.880864
C    24.957799   23.358672    2.880142
C    24.954332   20.892465    2.887224
C    17.831114   25.825556    2.932683
C    14.272401   24.596126    2.921183
C    22.106383   25.825701    2.914721
C     0.745612    6.097230    2.839932
C     1.459568    7.333009    2.844309
C     2.886611    7.332765    2.845780
C     1.459788    4.861450    2.836246
C    16.410580   25.825555    2.947711
C    33.494588    6.097323    2.857009
C     2.886621    4.861219    2.837930
C     3.600604    6.097027    2.843368
C    13.557801   18.425922    2.881985
C    20.686698   15.958354    2.872758
C    17.831164   15.958704    2.880289
C     0.748915    8.562994    2.866583
C    32.783976    4.867129    2.844814
C     0.749068    3.631184    2.846915
C    33.498047    3.631215    2.838882
C    32.783973    7.327445    2.858966
C     3.597290    8.562973    2.867908
C     5.021030    6.096728    2.863681
C     3.597503    3.631040    2.850013
C    33.497877    8.563156    2.863829
C    14.272091   17.188959    2.882687
C    31.357470    4.867155    2.852283
C     5.017935    3.630811    2.845599
C     1.459732    9.793459    2.867201
C     1.459960    2.400730    2.837340
C     5.731843    4.866655    2.853924
C    12.141887   20.892938    2.918268
C     2.886539    9.793413    2.867140
C     2.886874    2.400633    2.839161
C    32.784253    2.394964    2.838898
C    16.410401   15.958916    2.903162
C    30.643346    3.631148    2.849777
C     5.017769    8.562806    2.866400
C     5.731712    7.326956    2.865785
C    31.357405    2.394899    2.842421
C    12.138510   23.359113    2.949391
C    22.107014   15.958620    2.897034
C    24.958359   18.425654    2.869497
C     0.746037    1.164536    2.840462
C    30.646969    6.097137    2.878402
C     5.731712    2.394706    2.849346
C    31.357466    7.327172    2.870480
C    33.494930    1.164511    2.850870
C     7.158758    4.866677    2.867369
C     3.600698    1.164498    2.845460
C    26.377915   23.358079    2.901519
C    24.954085   25.825652    2.902527
C    24.244497   17.188782    2.875406
C     5.021059    1.164461    2.860858
C     7.158858    2.394586    2.860103
C    30.646784    1.164596    2.858558
C    29.223386    3.631012    2.873937
C    11.428340   22.129205    2.937553
C     0.745739   11.029371    2.887819
C     1.459994   39.383664    2.847255
C     7.872675    3.630770    2.869578
C    32.784239    9.799222    2.882793
C    32.784222   39.389347    2.845349
C     2.886682   39.383733    2.850552
C    19.972340   27.062593    2.939269
C     3.600466   11.029489    2.884874
C    26.374513   20.892287    2.888266
C    18.544598   27.062270    2.950108
C    31.357519   39.389520    2.848499
C     7.158708    7.326674    2.881784
C    28.512776    2.400746    2.865708
C    22.816366   27.056036    2.916684
C    29.226472    1.164660    2.859380
C     0.749128   38.153548    2.863096
C     5.731456    9.799077    2.882375
C     7.869106    6.096645    2.895028
C    33.498247   38.153509    2.851472
C    12.138102   18.426190    2.921491
C    13.562676   25.826050    2.960621
C    29.226750    6.096863    2.883765
C    11.428062   19.656486    2.923695
C    28.512804    4.861340    2.881091
C    33.494841   11.029163    2.908406
C     7.869201    1.164442    2.883547
C     5.731729   39.389414    2.862015
C     3.597324   38.153643    2.872047
C     5.020585   11.028970    2.901908
C     9.292925    3.630778    2.899952
C    27.088046   22.127942    2.896707
C    30.643471    8.562945    2.889325
C     1.459904   36.923440    2.859835
C    24.243427   27.055631    2.904687
C    32.784288   36.917887    2.859238
C    26.374121   25.824868    2.894887
C    27.087746   24.588425    2.896110
C    30.643458   38.153647    2.860129
C     2.886599   12.265391    2.903635
C     1.459743   12.265417    2.906577
C     2.886641   36.923623    2.865779
C     0.745920   35.687775    2.863248
C    11.428429   24.589383    2.956868
C    18.544705   14.722035    2.901217
C    19.972840   14.721866    2.896545
C    28.512820   39.383923    2.872149
C     7.158768   39.389491    2.873283
C     5.017701   38.153723    2.868698
C    31.357378    9.799196    2.895742
C    27.086021    2.400849    2.883009
C    33.494974   35.687888    2.875069
C    15.700381   27.055824    2.954063
C     9.289773    1.164442    2.891144
C    10.003229    2.400572    2.896676
C    31.357653   36.917895    2.864703
C     1.459889   34.451610    2.871333
C    29.223552   38.153927    2.884429
C     7.872422    8.562599    2.898608
C    13.562600   15.959051    2.924593
C     7.158561    9.798806    2.897860
C     0.749273   33.221659    2.890580
C     9.289675    6.096531    2.903139
C    32.784510   34.457631    2.873608
C    10.003316    4.860900    2.904691
C    26.378008   18.426032    2.901889
C    33.498370   33.221675    2.880861
C    12.142416   25.825715    2.960195
C    10.000736   22.129080    2.949404
C     3.600697   35.687827    2.878349
C    26.372289    1.164643    2.891895
C    27.086260    4.860871    2.899668
C     2.886847   34.451674    2.880225
C    27.088040   19.656235    2.895365
C    27.086212   39.383887    2.887774
C    26.375901    3.630847    2.912443
C     1.460039   31.991507    2.891866
C    28.513201    7.332554    2.905073
C    14.272860   27.055991    2.956780
C    15.700419   14.728960    2.925163
C    30.647224   35.687969    2.889326
C     0.746044   30.755770    2.902660
C    11.430554    2.400765    2.915854
C    29.223807    8.562433    2.920717
C     5.731538   36.918056    2.886963
C     5.731109   12.259078    2.908831
C    32.784582   31.985744    2.893185
C    31.357837   34.457877    2.880145
C    32.784377   12.259216    2.922674
C    20.682569   28.292250    2.969866
C    22.102606   28.291893    2.942729
C    33.495149   30.755901    2.914443
C    11.428210   17.195848    2.923946
C     7.872599   38.153735    2.894445
C     2.886892   31.991572    2.900943
C    10.000538   19.656515    2.939181
C    10.003138   39.383683    2.909606
C    10.001123   24.588846    2.963024
C    24.954212   15.958841    2.915976
C     3.597021   13.495095    2.934881
C     0.749346   13.494983    2.943145
C    22.817089   14.728442    2.915965
C    28.514286   24.588116    2.907759
C    27.087454   27.061093    2.903948
C     5.020823   35.688187    2.904107
C     3.597443   33.221611    2.909444
C    28.513083   36.923725    2.891002
C     9.290685   23.358788    2.969689
C     1.460168   29.520116    2.917010
C    28.514521   22.128091    2.911279
C     9.286804   20.892809    2.946140
C    17.834617   28.292053    2.982954
C    14.272849   14.729091    2.931169
C    24.952563    1.164601    2.925291
C    12.142273   15.959432    2.925136
C    24.957223   28.291663    2.913678
C    12.144070    1.164495    2.927100
C    30.647128   11.028968    2.933482
C    29.226997   35.688069    2.891534
C    11.430550    4.860559    2.923376
C    12.140551    3.630753    2.941406
C     9.292544    8.562054    2.930651
C     5.017028   13.494748    2.921363
C     7.868581   11.028688    2.930549
C    31.357854   31.985712    2.897839
C    32.784659   29.525956    2.913076
C     7.158567   36.918064    2.901200
C    10.003045    7.332175    2.920228
C    30.643888   33.221768    2.892616
C    26.376071   38.154002    2.916936
C     2.886881   29.520164    2.924161
C     9.292714   38.153916    2.924996
C    33.498404   13.494833    2.937088
C     3.600875   30.755794    2.918955
C    24.955881    3.630739    2.923379
C    11.430376   39.383548    2.925856
C     0.749654   28.290346    2.936631
C     7.157979   12.258569    2.920228
C    16.414311   28.291971    2.965658
C    28.514067   27.060651    2.908771
C    29.224338   23.357924    2.929990
C    24.242445    2.394811    2.926453
C    26.372408    6.096635    2.921062
C    26.377078   28.291063    2.923843
C    33.498764   28.290216    2.920793
C    29.227764   25.824276    2.911438
C    31.357627   12.258993    2.931162
C    27.086489   36.924017    2.905777
C     5.017586   33.221826    2.915131
C    31.357939   29.526029    2.913493
C    27.086439    7.332489    2.923240
C    24.243719   14.728942    2.921458
C     2.886572   14.724848    2.941899
C     5.731372   34.457871    2.912448
C    30.647379   30.755911    2.921203
C    27.087778   17.195738    2.913208
C     1.459931   14.724784    2.945564
C    13.564305    1.164534    2.956842
C    24.242390   39.389688    2.925616
C     9.287283   25.825514    2.964499
C     9.290489   18.426220    2.954182
C    10.000828   17.196166    2.937617
C    11.428747   27.062625    2.969860
C    28.514650   19.656047    2.914979
C     3.597141   28.290428    2.948725
C    17.835026   13.492949    2.950937
C     7.870805   23.358499    2.953793
C     1.460158   27.060286    2.935082
C    30.643978   28.290302    2.915443
C    20.683093   13.492460    2.940807
C    29.224028   28.290766    2.926571
C    28.513358   34.451991    2.904309
C    26.374077   15.959657    2.919415
C    32.785014   27.054011    2.924848
C    28.513527    9.792612    2.931253
C    29.224041   33.222050    2.915504
C    13.561126    3.630642    2.949088
C    24.955993   38.154094    2.922892
C     5.020585   30.756218    2.945165
C    31.357887   27.054055    2.919339
C     2.886921   27.060456    2.939810
C    29.228487   20.892272    2.921955
C    30.647708   25.823940    2.933310
C    14.274157    2.394644    2.952168
C    16.414297   13.493241    2.945217
C     9.288625   11.028160    2.936562
C     7.866890   20.892889    2.961240
C    29.227244   11.028681    2.936226
C     5.730836   14.730487    2.934160
C    22.815535    2.394600    2.942107
C    28.513606   29.520578    2.918561
C    10.002380    9.791969    2.935531
C    22.816222   29.527790    2.948298
C    29.227426   30.756231    2.914918
C    24.243139   29.527540    2.932144
C     7.157189   24.594903    2.950903
C    22.103306   13.493010    2.932814
C     7.867215   25.824941    2.970335
C     7.868729   35.688351    2.935341
C     7.871531   13.494338    2.934918
C     5.731229   31.985686    2.932405
C     5.017085   28.290765    2.944631
C    12.144212    6.096315    2.938429
C    24.242527    4.866621    2.941843
C    10.001068   27.062100    2.969725
C    13.558738   28.292303    2.966696
C     7.157034   22.122683    2.950208
C    11.428735   14.722849    2.940514
C    27.087137   29.520969    2.920633
C     0.746313   25.823988    2.940058
C    11.430275    7.332084    2.936501
C    19.972049   29.521856    2.981448
C    33.495439   25.823945    2.947902
C    12.140231   38.153938    2.955905
C    30.644343   23.357819    2.934563
C     7.158356   34.458334    2.926873
C    22.815389   39.389773    2.940785
C    22.105684    1.164498    2.958928
C    10.002921   36.923989    2.935556
C    14.274112   39.389709    2.954674
C    28.513533   31.992021    2.913816
C    31.358055   24.593776    2.933669
C    32.784545   14.730588    2.951685
C     5.731027   29.526419    2.945951
C     7.157581   14.730108    2.936955
C     3.600438   25.824223    2.944935
C    26.372505   35.688199    2.919975
C    24.952774    6.096256    2.954582
C     9.287415   15.959575    2.941051
C     5.730666   27.054766    2.949041
C    18.544857   29.521802    2.985583
C     5.020229   25.824694    2.957835
C     3.600358   15.960524    2.947790
C    15.701620    2.394467    2.959468
C     7.157422   27.055037    2.956518
C    13.558938   13.492962    2.946578
C     7.870601   18.426583    2.945641
C     5.730325   24.594705    2.944721
C    10.001201   14.723370    2.943050
C     0.745853   15.960605    2.955665
C     9.291373   13.493611    2.956353
C    30.643612   13.494736    2.945207
C    27.086346   34.452015    2.917802
C     5.020238   15.960080    2.954089
C    12.138678   28.292274    2.986414
C     7.156976   19.662857    2.946983
C    32.785077   24.593727    2.941920
C    10.001880   12.263921    2.948370
C    28.514274   17.196170    2.932071
C    16.411309    1.164549    2.974120
C     7.867533   15.959989    2.953955
C     2.886843   24.587888    2.948927
C    29.224406   18.426322    2.945977
C    22.102069    3.630752    2.953174
C     1.460008   24.587592    2.948970
C    13.560792   38.154093    2.956032
C    12.138749   13.493400    2.961193
C    15.701525   39.389899    2.960687
C    26.376477    8.562236    2.955513
C    20.685388    1.164477    2.958241
C     9.289145   35.688431    2.938751
C    24.242371   36.918358    2.937661
C    14.274263    4.866341    2.959450
C     5.016408   23.358286    2.946465
C    26.372995   30.756373    2.927977
C    11.429963   36.924224    2.947212
C     7.157114   17.190038    2.942770
C     5.730355   22.122443    2.948881
C     7.871413   28.291269    2.962906
C    33.495077   15.960405    2.971467
C    17.831794    1.164531    2.966141
C    30.647820   20.892433    2.956234
C    31.357635   14.730676    2.951738
C     7.157618   29.526958    2.956810
C    27.086910    9.792065    2.943577
C     7.158074   31.985983    2.945103
C    31.358160   22.122200    2.947931
C    27.086671   31.992416    2.924092
C    19.972193    2.400726    2.962762
C     9.291098   28.292178    2.984296
C    22.815694    4.866657    2.955120
C    27.087575   14.723963    2.938891
C    15.700484   29.528473    2.971100
C    22.101708   38.153932    2.950711
C     2.886799   17.196729    2.953397
C    28.513659   12.264661    2.947980
C    18.544916    2.400710    2.966211
C     3.596849   23.357963    2.964692
C     5.730498   17.190139    2.942358
C    24.953291   30.756917    2.950719
C    13.564267    6.095967    2.968428
C    19.972002   39.383751    2.964257
C    16.414951    3.630625    2.964485
C    11.429656    9.791237    2.948108
C    24.957697   13.493528    2.936730
C    24.952613   35.688647    2.948163
C    33.498928   23.357859    2.953634
C     7.871969   33.222103    2.942551
C    11.428885   12.263481    2.954233
C     0.749676   23.357883    2.969202
C     1.459802   17.196913    2.957830
C    29.223938   13.494361    2.961052
C    26.376186   33.222068    2.942174
C    18.544910   39.383819    2.968165
C     5.730286   19.663041    2.947155
C    20.682015    3.630686    2.975269
C     5.020195   20.892833    2.964192
C    12.139961    8.561601    2.963328
C    14.272502   29.528746    2.969112
C    29.227788   15.960166    2.945718
C     5.016543   18.426730    2.945877
C    28.513981   14.724236    2.946342
C    22.106097   30.757022    2.978828
C     7.868189   30.756444    2.970401
C    18.545513   12.262962    2.961107
C    17.835318    3.630706    2.980936
C    32.784883   22.122122    2.958442
C    19.972648   12.263047    2.953005
C     2.886525   22.127999    2.961822
C    26.377259   13.494317    2.955427
C    22.815452   36.918273    2.949903
C    30.647527   15.960440    2.967099
C    15.701511    4.866480    2.966798
C    30.644351   18.426564    2.953796
C    20.681721   38.153891    2.974659
C     3.596989   18.426770    2.965501
C    16.414890   38.154083    2.965471
C    20.685845   30.757407    2.979878
C     1.460063   22.128032    2.964321
C    15.700852   12.256682    2.959548
C    31.358105   19.662463    2.957898
C    14.272874   12.256593    2.955778
C    32.784807   17.190496    2.965194
C     3.600293   20.892596    2.960160
C    24.242792    7.326186    2.959972
C    12.142920   11.027399    2.955901
C    10.001766   29.521692    2.977239
C     0.749476   18.426762    2.976692
C    17.835207   38.153997    2.981876
C    31.357927   17.190370    2.960839
C     2.886738   19.656842    2.960687
C    27.087134   12.264362    2.949187
C    11.428702   29.522072    2.980089
C     0.745950   20.892532    2.966677
C    33.495131   20.892497    2.978201
C    22.816684   12.257002    2.945681
C    14.273969   36.918538    2.965266
C    10.002414   34.452404    2.951152
C     1.459916   19.656753    2.964839
C    26.373320   11.028401    2.950151
C    33.498756   18.426674    2.967857
C    24.242682   31.986570    2.952276
C    24.956436    8.561807    2.958199
C    24.956143   33.222434    2.945577
C    32.784864   19.662731    2.967175
C     9.291920   33.222598    2.965395
C     9.288113   30.757030    2.968289
C    24.242608   34.458524    2.948387
C    24.243844   12.257252    2.944389
C    17.831034   30.757671    2.987353
C    12.143595   35.688573    2.958382
C    19.972164    4.860495    2.972500
C    22.105894    6.096246    2.979407
C    15.701319   36.918444    2.968323
C    18.545042    4.860518    2.975162
C    22.816030   31.986751    2.963933
C    19.971835   36.924099    2.971002
C    13.563015   11.026674    2.974572
C    16.410617   30.757936    2.995171
C    14.273971    7.325681    2.967108
C    22.105571   35.688643    2.972247
C    13.560516    8.561233    2.965369
C    10.001965   31.992927    2.964270
C    18.544849   36.924260    2.974609
C    11.429850   34.452452    2.959147
C    13.563905   35.688932    2.979364
C    24.953653   11.027672    2.965576
C    22.816010    7.325848    2.968591
C    12.142594   30.757556    2.978493
C    22.815549   34.458803    2.958803
C    13.562789   30.758211    2.991068
C    16.411294    6.095926    2.986014
C    20.685720    6.096061    2.973812
C    19.972313   31.993402    2.979689
C    24.243166    9.797791    2.961321
C    20.685330   35.688641    2.969330
C    22.102295   33.222728    2.967156
C    16.411338   11.027131    2.984710
C    11.429325   31.993393    2.971093
C    17.831705    6.095970    2.978711
C    22.106490   11.027496    2.969023
C    17.831969   11.027168    2.974174
C    20.686465   11.026998    2.959427
C    14.273519    9.797143    2.969844
C    18.544603   31.993719    2.982728
C    15.701344    7.325429    2.973368
C    16.411106   35.688936    2.986499
C    17.831517   35.688785    2.976798
C    12.139705   33.222899    2.982672
C    20.682156   33.223163    2.986020
C    15.700552   31.987489    2.985134
C    14.273501   34.459017    2.976588
C    19.972133   34.452745    2.974269
C    14.273221   31.987563    2.984366
C    22.816296    9.797506    2.963903
C    22.102603    8.561523    2.969649
C    13.560211   33.223296    2.980111
C    15.701224    9.797235    2.974396
C    15.701029   34.459280    2.978013
C    18.544663   34.453026    2.977755
C    19.972284    7.331486    2.977049
C    17.834736   33.223419    2.992595
C    18.545055    7.331318    2.979507
C    16.414210   33.223350    2.982084
C    16.414775    8.561161    2.975837
C    19.972789    9.790615    2.966821
C    18.545035    9.790706    2.973336
C    20.682451    8.561004    2.983482
C    17.835275    8.561033    2.989456
C    17.837651   20.897545    6.522704
C    17.841798   18.419106    6.471090
C    18.554974   19.652590    6.527587
C    15.701218   19.659914    6.558948
C    18.555829   22.136840    6.542568
C    19.994999   19.656950    6.542421
C    18.551074   17.188227    6.518337
C    15.698495   17.178738    6.543371
C    19.989175   17.191621    6.543357
C    16.413381   20.894728    6.532158
C    20.703861   18.419416    6.534048
C    20.711436   20.891203    6.551166
C    16.416536   18.417856    6.536104
C    15.701665   22.127145    6.589016
C    17.836457   15.948583    6.554194
C    19.992903   22.136512    6.586567
C    20.705141   15.945756    6.600989
C    18.553079   14.710427    6.639125
C    16.413955   15.947538    6.597443
C    16.420355   23.373340    6.565684
C    22.132114   18.422397    6.582556
C    13.551751   20.893558    6.609541
C    22.137317   20.892109    6.532362
C    20.706924   23.367885    6.572141
C    14.263689   22.129337    6.611869
C    13.550598   18.416889    6.589218
C    19.988050   14.709825    6.608556
C    22.133083   15.946855    6.607163
C    22.129953   23.367233    6.631514
C    14.264931   19.661410    6.582507
C    14.269043   17.180876    6.629122
C    17.843951   23.372468    6.545071
C    13.547238   23.372665    6.632104
C    22.849335   19.661205    6.561462
C    13.556907   15.946294    6.685303
C    22.846647   17.178460    6.605745
C    22.844902   22.125701    6.581879
C    15.700803   24.617670    6.577421
C    12.120014   20.891795    6.646681
C    11.405568   22.136970    6.658201
C    14.268553   14.715514    6.643093
C    24.273546   22.123328    6.584830
C    11.407354   19.649876    6.646564
C    12.114172   23.367824    6.640792
C    11.412075   17.180603    6.640090
C    20.710913   25.841645    6.635190
C    12.121816   18.416299    6.621560
C    14.264476   24.615900    6.615589
C    18.554891   24.603249    6.590953
C    24.982393   20.887138    6.591512
C    19.993023   24.598074    6.669460
C    15.698970   14.712632    6.646362
C     9.970927   19.649719    6.661716
C     9.967351   22.133647    6.676006
C    22.844946   24.610766    6.642633
C    24.275567   19.657607    6.592766
C    22.135659   25.839839    6.648821
C    12.131376   15.946393    6.686229
C    24.984018   23.365852    6.636925
C    16.418462   25.850511    6.548718
C    24.981848   18.421183    6.619565
C    17.840117   13.474232    6.608112
C    20.700119   13.476850    6.660304
C     0.746144    6.093519    6.622488
C     1.459693    4.859144    6.620606
C     0.749812    3.630744    6.609811
C    32.786875    4.864907    6.622035
C    33.500295    3.630619    6.621063
C    33.496476    6.093693    6.613131
C    24.270079   17.181138    6.624882
C     2.885193    4.859395    6.621314
C     9.975665   17.180323    6.619716
C     1.459452    7.328104    6.626299
C    32.787241    2.396063    6.624156
C     1.459711    2.402129    6.622758
C    24.267676   24.608744    6.643035
C     3.595233    3.630652    6.612352
C     2.885210    2.402090    6.623800
C    18.553779   12.243391    6.659384
C     3.598555    6.093501    6.623598
C    31.361547    4.865219    6.627664
C     2.885139    7.328094    6.626956
C    31.361646    2.395849    6.627771
C    17.839687   25.845146    6.614658
C     0.746540    1.167519    6.623822
C    30.648335    3.630604    6.630238
C    33.497073    1.167350    6.613798
C    32.786716    7.322759    6.632662
C     5.014401    3.630572    6.627070
C     0.749502    8.557625    6.623287
C     3.598600    1.167479    6.626095
C    30.651352    1.167116    6.619852
C    32.787043   39.393862    6.627694
C    26.395334   20.891358    6.633792
C    18.555747   27.077347    6.652773
C     1.459722   39.388305    6.624358
C     5.017933    1.167365    6.620487
C     5.728507    2.395882    6.631575
C     5.017682    6.093497    6.616669
C     2.885164   39.388218    6.625962
C    31.361395   39.393674    6.631031
C    33.499537    8.558145    6.637856
C     5.728254    4.864783    6.627876
C     9.254347   20.892363    6.649925
C    30.651543    6.094173    6.625721
C    26.399102   23.364720    6.633171
C    29.232388    1.167012    6.636030
C    29.229074    3.630552    6.627571
C     0.749746   38.159551    6.615846
C     9.258038   23.368563    6.643213
C    33.500134   38.159415    6.627754
C     3.594877    8.556958    6.624954
C    28.518844    2.401726    6.640411
C    22.841496   14.716836    6.653283
C    31.361076    7.323283    6.639257
C     7.155189    2.395705    6.636673
C    16.416178   13.470978    6.617035
C    30.648114   38.159179    6.635204
C    13.554878   13.473415    6.705662
C    19.988477   27.075445    6.694164
C     5.728610   39.394222    6.638672
C     1.458866    9.787095    6.643105
C     9.261265   18.415038    6.644887
C     3.595184   38.159635    6.620361
C    28.518781   39.387762    6.639979
C    32.786859   36.924848    6.631630
C     2.884840    9.786458    6.643449
C     1.459415   36.930819    6.631876
C    31.361542   36.924709    6.635932
C     5.727443    7.321494    6.636236
C    29.229099   38.159228    6.629496
C     7.866572    1.167308    6.632059
C     7.154617    4.864532    6.634449
C     5.014484   38.159679    6.638383
C     7.155331   39.394242    6.644052
C    27.107416   22.130871    6.641073
C     2.885101   36.930674    6.633673
C     5.013616    8.556501    6.640855
C    28.519136    4.859180    6.649591
C    33.496367   35.695686    6.625595
C     7.869308    3.629913    6.638307
C     0.745968   35.695851    6.637560
C    27.092775    2.401613    6.649900
C    29.232756    6.094214    6.649147
C    27.092993   39.387963    6.648695
C    32.786517    9.793894    6.649829
C    32.787177   34.466371    6.644056
C    26.379150    1.167118    6.653712
C    30.651962   35.695838    6.634314
C     9.286257    1.167389    6.652769
C    11.406519   24.604626    6.670330
C    24.976505   25.836817    6.640336
C    28.519524   36.930835    6.651586
C     1.458941   34.460542    6.644647
C     0.745307   11.023525    6.652602
C    15.698497   12.233941    6.660830
C    33.499810   33.230660    6.647774
C    31.361694   34.466580    6.648692
C     0.749303   33.230707    6.637883
C    30.648257    8.558442    6.652569
C     3.598403   35.696220    6.642626
C    22.123310   13.479573    6.680451
C     7.153097    7.320990    6.643112
C     7.869144   38.160340    6.651544
C     5.728336   36.925751    6.645976
C    29.233374   35.695968    6.654781
C    26.396116   18.421478    6.636485
C     7.864557    6.092333    6.632053
C    13.550350   25.849626    6.618569
C    26.382995   38.159734    6.649031
C     9.289392    3.629142    6.639071
C     2.884816   34.460882    6.648198
C    26.382307    3.630317    6.649938
C    32.787421   31.994793    6.651801
C     7.836427   20.892104    6.652587
C     3.596799   11.022030    6.650568
C    33.495754   11.024069    6.647148
C    27.105419   24.595161    6.653975
C    24.974769   15.953015    6.640697
C    19.987257   12.245238    6.699605
C    10.000958    2.401339    6.657063
C    10.000713   39.388952    6.660561
C    27.106135   19.654379    6.651379
C    27.092806    4.859096    6.661322
C    27.093828   36.931278    6.661771
C    24.959645    1.167356    6.658635
C     1.458232   32.000933    6.657472
C    14.267280   12.237061    6.692767
C     5.725587    9.790722    6.649979