==================================================================================
It's Tue 31 Oct 2023 10:48:17 PM GMT.
*** Starting onetep_launcher (node nid004659, PIDs 77179 77180 77181 77182 77183 77184 77185 77186 77187 77188 77189 77190 77191 77192 77193 77194)...
    - ONETEP arguments: graphite.dat
    - Current directory: /mnt/lustre/a2fs-work3/work/e89/e89/arihant/linuc/new-lithiated/n/05/0.-1
    - Launcher executable directory: /mnt/lustre/a2fs-work3/work/e89/e89/arihant/onetep/utils
    - (-e) ONETEP executable specified through command-line: /work/e89/e89/arihant/onetep/bin/onetep.archer2_2023_cray
      ... trying /work/e89/e89/arihant/onetep/bin/onetep.archer2_2023_cray
          -> looks OK
*** Setting up environment...
    - (-s) Process stack size: unlimited
    - (-t) OMP_NUM_THREADS: 8
    - (-o) OMP_STACKSIZE: 64M
    - (-c) Maximum core file size: 2048000
    - (-d) decfort_dump_flag: n
    - (-m) I_MPI_OFA_TRANSLATION_CACHE: 0
    - (-m) I_MPI_DAPL_TRANSLATION_CACHE: 0
    - (-m) I_MPI_DAPL_UD_TRANSLATION_CACHE: 0
*** Starting ONETEP...
    - /work/e89/e89/arihant/onetep/bin/onetep.archer2_2023_cray graphite.dat
=================================================================================
_________________________________________________________________________________
 +---------------------------------------------------------------+
 |                                                               |
 |        ####### #     # ####### ####### ####### ######         |
 |        #     # ##    # #          #    #       #     #        |
 |        #     # # #   # #          #    #       #     #        |
 |        #     # #  #  # #####      #    #####   ######         |
 |        #     # #   # # #          #    #       #              |
 |        #     # #    ## #          #    #       #              |
 |        ####### #     # #######    #    ####### #              |
 |                                                               |
 |        Linear-Scaling Ab Initio Total Energy Program          |
 |                                                               |
 |          Release for academic collaborators of ODG            |
 |                                             Version 6.1.59    |
 | Remote: https://github.com/onetep-devel/onetep.git            |
 | Local branch: master                                          |
 | Commit ID: 3df6b8ca88fa1735659d3248d54c94b50edec21b           |
 | Date: Thu Oct 5 13:49:52 2023 +0200                           |
 | Working tree clean                                            |
 |                                                               |
 +---------------------------------------------------------------+
 |                                                               |
 |  Authors:                                                     |
 |  Jacek Dziedzic, Peter D. Haynes, Nicholas D. M. Hine,        |
 |  Arash A. Mostofi, Mike C. Payne and Chris-Kriton Skylaris    |
 |                                                               |
 |  Contributors:                                                |
 |  J. Aarons, L. Andrinopoulos, P. W. Avraam, R. A. Bell,       |
 |  A. Bhandari, G. A. Bramley, R. J. Charlton, S. J. Clark,     |
 |  R. J. Clements, G. C. Constantinescu, F. Corsetti,           |
 |  N. Corsini, O. Dieguez, S. M. M. Dubois, K. K. B. Duff,      |
 |  J. M. Escartin, M. Escobar Azor, A. Greco,                   |
 |  H. Helal, Q. O. Hill, L. P. Lee, J.-H. Li,                   |
 |  E. B. Linscott, G. Moynihan, D. D. O`Regan,                  |
 |  O. K. Okan, M. J. S. Phipps, C. J. Pickard,                  |
 |  J. C. A. Prentice, M. I. J. Probert, L. E. Ratcliff,         |
 |  M. Robinson, A. Ruiz Serrano, M. dos Santos Dias,            |
 |  J. S. Spencer, E. W. Tait, G. Teobaldi, D. Turban,           |
 |  V. Vitale, K. A. Wilkinson, C. Weber, J. C. Womack,          |
 |  N. Yeung and T. J. Zuehlsdorff                               |
 |                                                               |
 |                                   Copyright (c) 2004-2023     |
 |                                                               |
 |  Please cite:                                                 |
 |  "The ONETEP linear-scaling density functional theory program"|
 |   J. Chem. Phys. 152(17) 174111 (2020)                        |
 |                                                               |
 |          in all publications arising from your use of ONETEP. |
 |                                                               |
 +---------------------------------------------------------------+
 |                                                               |
 |   ONETEP is based on developments described in the following  |
 |   publications:                                               |
 |                                                               |
 |  "Nonorthogonal generalized Wannier function pseudopotential  |
 |   plane-wave method".                                         |
 |   C.-K. Skylaris, A. A. Mostofi, P. D. Haynes, O. Dieguez,    |
 |   M. C. Payne.                                                |
 |   Phys. Rev. B 66 035119 (2002).                              |
 |                                                               |
 |  "Preconditioned iterative minimization for linear-scaling    |
 |   electronic structure calculations".                         |
 |   A. A. Mostofi, P. D. Haynes, C.-K. Skylaris, M. C. Payne.   |
 |   J. Chem. Phys. 119(17), pp.8842-8848 (2003).                |
 |                                                               |
 |  "Total-energy calculations on a real space grid with         |
 |   localized functions and a plane-wave basis".                |
 |   A. A. Mostofi, C.-K. Skylaris, P. D. Haynes, M. C. Payne.   |
 |   Comput. Phys. Commun. 147, pp.788-802 (2002).               |
 |                                                               |
 |  "Accurate kinetic energy evaluation in electronic structure  |
 |   calculations with localized functions on real space grids"  |
 |   C.-K. Skylaris, A. A. Mostofi, P. D. Haynes, C. J. Pickard, |
 |   M. C. Payne.                                                |
 |   Comput. Phys. Commun. 140, pp.315-322 (2001).               |
 |                                                               |
 |  "Accurate ionic forces and geometry optimization in linear-  |
 |   scaling density-functional theory with local orbitals"      |
 |   N. D. M. Hine, M. Robinson, P. D. Haynes, C.-K. Skylaris,   |
 |   M. C. Payne, and A. A. Mostofi.                             |
 |   Phys. Rev. B 83 195102 (2011).                              |
 |                                                               |
 +---------------------------------------------------------------+

Job started: 31-10-2023 22:48 (+0000)
 
Reading parameters from file "graphite.dat" ...... done

If your calculation crashes here, before "Checking processes and threads..."
is displayed, then your stack size is insufficient.
If so, use "ulimit -s unlimited" at runtime.
You can disable this check with "check_stack_size F".

Checking processes and threads...
   Determining the default number of threads...
      No default threads set at compilation time: defaulting to 1.
      OpenMP library call suggests 8 threads.
      Hybrid MPI-OpenMP compilation detected.
      Number of MPI processes > 1.
      OMP_NUM_THREADS environment variable present and
      its value matches the one obtained from the OpenMP library call.
      Using this value as default.
      Default threads: 8
      Default applies to threads_max and threads_num_fftboxes.
      Settings in the input file override this default.
   ... done

   Running with 128 MPI processes.
   There are 16 MPI processes running on the same node as the root process.
   Each MPI process is using: 
               1 threads for simulation cell FFTs.
               1 threads for parallel FFT box operations.
               8 threads for loops over batched FFT box operations.
               8 threads in other parallel regions.
   MPI Interface: S1 (use mpi_f08) (-DMPI -DUSE_MPI_F08).
   MPI_ASYNC_PROTECTS_NONBLOCKING: Yes. MPI_SUBARRAYS_SUPPORTED: Yes.
   GPU Interface: None.
... done

Basic input checks...
Resetting ngwf_cg_rotate to TRUE for EDFT calculations
... done

Reading geometry and species blocks from file "graphite.dat" ...
  Reading POSITIONS geometry from str.xyz

  <species_atomic_set> block not found: NGWF initialisation set to SOLVE
IS: Dielectric excluded regions:
    - NONE.
IS: Assigning soft sphere radii for soft sphere solvation...
IS: No soft sphere radii specified. Default Alvarez radii used for all atoms.

----------- SOFT SPHERE RADII -----------
Li  5.333
C   4.442
-----------------------------------------

    
  Number of PPD points along a3 set to 1.  This is 
  the default value, it may have been provided also in the input file.
... done


--------------------------------------------------------------------------------
---------------------------------- INPUT FILE ----------------------------------
--------------------------------------------------------------------------------

task geometryoptimization                                                       
geom_method LBFGS                                                               
geom_continuation T                                                             
write_xyz T                                                                     
edft_grand_canonical T                                                          
edft_reference_potential  -4.42 eV                                              
edft_electrode_potential -0.1 V                                                 
edft_nelec_thres 0.000001                                                       
is_dielectric_function soft_sphere                                              
is_implicit_solvent T                                                           
is_smeared_ion_rep T                                                            
is_include_apolar T                                                             
is_solvation_properties F                                                       
is_pbe                    full                                                  
is_pbe_temperature        298.15                                                
is_pbe_bc_debye_screening T                                                     
is_pbe_neutralisation_scheme counterions_auto                                   
is_pbe_energy_tolerance 1E+50                                                   
is_bc_coarseness 5                                                              
is_bc_threshold 1E-9                                                            
is_bulk_permittivity 90.7                                                       
is_solvent_surf_tension 0.0506 N/m                                              
%block sol_ions                                                                 
Li  +1 1.0                                                                      
PF6 -1 1.0                                                                      
%endblock sol_ions                                                              
is_steric_pot_type M                                                            
is_hc_steric_dens_isovalue  0.001                                               
is_hc_steric_smearing         0.4 bohr                                          
is_steric_write T                                                               
%block species_solvent_radius                                                   
Li 3.0                                                                          
C 3.0                                                                           
%endblock species_solvent_radius                                                
multigrid_bc:   P P P                                                           
ion_ion_bc:     P P P                                                           
pspot_bc:       P P P                                                           
smeared_ion_bc: P P P                                                           
mg_max_iters_vcycle 500                                                         
mg_vcyc_smoother_iter_pre 4                                                     
mg_vcyc_smoother_iter_post 4                                                    
mg_max_res_ratio 1000.0                                                         
mg_max_iters_newton 300                                                         
edft                    : T                                                     
edft_smearing_width     : 0.1 eV                                                
spin                    : 0.0                                                   
edft_spin_fix           : 2                                                     
spin_polarized          : T                                                     
cutoff_energy :  1000 eV                                                        
kernel_cutoff : 1000 bohr                                                       
xc_functional PBE                                                               
dispersion 4                                                                    
output_detail VERBOSE                                                           
do_properties T                                                                 
cube_format F                                                                   
dx_format F                                                                     
write_denskern T                                                                
write_tightbox_ngwfs T                                                          
write_hamiltonian T                                                             
%block species                                                                  
Li Li 3  5  8.0                                                                 
C  C  6  4  8.0                                                                 
%endblock species                                                               
%block species_pot                                                              
Li '/work/e89/e89/arihant/pseudo/Li.usp'                                        
C '/work/e89/e89/arihant/pseudo/C.usp'                                          
%endblock species_pot                                                           
%BLOCK LATTICE_CART                                                             
ang                                                                             
34.16920551     0.00000000     0.00000000                                       
0.00000000    19.72760000     0.00000000                                        
0.00000000     0.00000000   100.02798000                                        
%ENDBLOCK LATTICE_CART                                                          
positions_xyz_file str.xyz                                                      
     Hash =   000002115914573592683570

--------------------------------------------------------------------------------
-------------------------------- END INPUT FILE --------------------------------
--------------------------------------------------------------------------------


 
 ESDF WARNING(1): "ispbeenergytolerance" (esdf_physical) has no units. Assume "hartree".
<<<<<<<<<<<<<<<<<<<<<<<<<<<<<<<<< Full system >>>>>>>>>>>>>>>>>>>>>>>>>>>>>>>>>>
<<<<<<<<<<<<<<<<<<<<<<<<< Pseudopotential information >>>>>>>>>>>>>>>>>>>>>>>>>>
File: /work/e89/e89/arihant/pseudo/Li.usp [ 2001 points up to Gmax=  52.9 (1/bohr)]
  Atomic number:  3;  ionic charge:  3.000000
    Shell 1: l = 0; rc = 1.19 bohr
    Shell 2: l = 0; rc = 1.25 bohr
File: /work/e89/e89/arihant/pseudo/C.usp [ 2001 points up to Gmax=  52.9 (1/bohr)]
  Atomic number:  6;  ionic charge:  4.000000
    Shell 1: l = 0; rc = 1.19 bohr
  Core charge supplied for Nonlinear Core Corrections
<<<<<<<<<<<<<<<<<<<<<<<<<<<<<<<<<<<<<<<<>>>>>>>>>>>>>>>>>>>>>>>>>>>>>>>>>>>>>>>>

-------------------------- Atom counting information ---------------------------
Symbol    Natoms    Nngwfs    Nprojs
  Li        37       185        74
  C        512      2048       512
.......   ......    ......    ......
Totals:    549      2233       586
--------------------------------------------------------------------------------

=============================== PSINC grid sizes ===============================
                      Simulation cell:  143 x  91 x 416
                              FFT-box:  117 x  91 x 117
                                  PPD:   11 x   7 x   1
Grid space d1=  0.451541543008a0 (KE cutoff=  37.25706Eh =1013.81618eV)
Grid space d2=  0.409667706512a0 (KE cutoff=  45.26271Eh =1231.66098eV)
Grid space d3=  0.454388192297a0 (KE cutoff=  36.79171Eh =1001.15326eV)
================================================================================
  
WARNING in cell_grid_distribute:
Average of less than one 23-slab per proc, so workload cannot be
equally balanced between procs.

********************* Fourier parallelisation information **********************
       Coarse grid (whole simulation cell) dimensions:    143    91   416
          Real-space ('12') slabs/proc (min max mean):      3     4     3
         Recip-space ('23') slabs/proc (min max mean):      0     1     0
********************************************************************************

********************* Fourier parallelisation information **********************
       Double grid (whole simulation cell) dimensions:    286   182   832
          Real-space ('12') slabs/proc (min max mean):      6     7     6
         Recip-space ('23') slabs/proc (min max mean):      1     2     1
********************************************************************************

********************* Fourier parallelisation information **********************
         Fine grid (whole simulation cell) dimensions:    288   184   832
          Real-space ('12') slabs/proc (min max mean):      6     7     6
         Recip-space ('23') slabs/proc (min max mean):      1     2     1
         Grid scale modified to satisfy multigrid solver grid constraints
         Grid scale values after modifification:         2.01  2.02  2.00
********************************************************************************
ONETEP fine grid is 288 x 184 x 832 gridpoints, 64.5704 x 37.2798 x 189.0255 bohr.
FD multigrid is     288 x 184 x 832 gridpoints, 64.5704 x 37.2798 x 189.0255 bohr.


Atom SCF Calculation for Li : Z (AE atom) =   3 : Z (PS atom) =   3
Config String:
Orbitals (num,occ):  3     2.00 1.00 0.00
Orbitals   (num,l):  3        0    0    1
Real-space Grid (nr,dr,rmax): 1343    0.0059612519    8.0000000000
Spherical Bessel Basis (nsws,lmax,cutoff):   37    1  220.4959463253
Confining potential (l,width,scale):  0    3.0000000000  100.0000000000
Confining potential (l,width,scale):  1    3.0000000000  100.0000000000
  1         -3.7050169094   -5.2301177776    2.5388568852   -0.9989538802
  2         -6.0510920273   -4.2679357854    3.2724001845   -1.3422946715
  3         -6.7975021434   -3.8722499620    3.6648237887   -1.5325279919
  4         -7.0147472228   -3.7673066376    3.7864613280   -1.5966989055
  5         -7.0774132854   -3.7446783348    3.8157063634   -1.6161454686
  6         -7.0951992563   -3.7420177453    3.8204515040   -1.6217593843
  7         -7.1001226024   -3.7430426481    3.8200527077   -1.6233132433
  8         -7.1014239576   -3.7441529610    3.8191274553   -1.6237164860
  9         -7.1017352306   -3.7448434699    3.8184905098   -1.6238077213
 10         -7.1017916056   -3.7452114113    3.8181373932   -1.6238209669
 11         -7.1017908912   -3.7453946820    3.8179578223   -1.6238181917
 12         -7.1017822190   -3.7454828903    3.8178702968   -1.6238141227
 13         -7.1017768840   -3.7455162316    3.8178369316   -1.6238119017
 14         -7.1017732849   -3.7455353767    3.8178176959   -1.6238104459
 15         -7.1017709700   -3.7455463461    3.8178066371   -1.6238095253
 16         -7.1017695244   -3.7455526225    3.8178002910   -1.6238089565
 17         -7.1017686390   -3.7455562110    3.8177966534   -1.6238086105
 18         -7.1017681040   -3.7455582619    3.8177945697   -1.6238084022
 19         -7.1017677838   -3.7455594341    3.8177933764   -1.6238082778
 20         -7.1017675934   -3.7455601042    3.8177926929   -1.6238082039
 21         -7.1017674808   -3.7455604874    3.8177923014   -1.6238081602
 22         -7.1017674145   -3.7455607066    3.8177920771   -1.6238081344
Atom SCF converged after  22 iterations to a total energy of     -7.10176741

Atom SCF Calculation for C  : Z (AE atom) =   6 : Z (PS atom) =   4
Config String:
Orbitals (num,occ):  2     2.00 2.00
Orbitals   (num,l):  2        0    1
Real-space Grid (nr,dr,rmax): 1343    0.0059612519    8.0000000000
Spherical Bessel Basis (nsws,lmax,cutoff):   37    1  220.4959463253
Confining potential (l,width,scale):  0    3.0000000000  100.0000000000
Confining potential (l,width,scale):  1    3.0000000000  100.0000000000
  1         -5.8177092822   -1.2555419264    4.5135233515   -1.7471920893
  2         -5.6032261188   -1.3440047989    4.4246587726   -1.7090653419
  3         -5.5936068668   -1.3561735374    4.4140765627   -1.7034094417
  4         -5.5958505747   -1.3587284552    4.4121342699   -1.7022848669
  5         -5.5969687665   -1.3601698222    4.4109982405   -1.7017057890
  6         -5.5975400979   -1.3609792837    4.4103423276   -1.7013975981
  7         -5.5978435204   -1.3614297943    4.4099696476   -1.7012314972
  8         -5.5980096069   -1.3616786122    4.4097605138   -1.7011416075
  9         -5.5981021113   -1.3618152853    4.4096441572   -1.7010929151
 10         -5.5981539939   -1.3618900852    4.4095797860   -1.7010665406
 11         -5.5981831160   -1.3619309228    4.4095443105   -1.7010522599
 12         -5.5981994243   -1.3619531807    4.4095248124   -1.7010445305
 13         -5.5982085235   -1.3619652972    4.4095141175   -1.7010403487
 14         -5.5982135796   -1.3619718867    4.4095082606   -1.7010380870
 15         -5.5982163780   -1.3619754676    4.4095050573   -1.7010368642
 16         -5.5982179208   -1.3619774123    4.4095033073   -1.7010362032
 17         -5.5982187685   -1.3619784678    4.4095023522   -1.7010358460
 18         -5.5982192328   -1.3619790404    4.4095018314   -1.7010356530
 19         -5.5982194864   -1.3619793509    4.4095015476   -1.7010355488
 20         -5.5982196245   -1.3619795192    4.4095013931   -1.7010354925
 21         -5.5982196995   -1.3619796104    4.4095013090   -1.7010354621
Atom SCF converged after  21 iterations to a total energy of     -5.59821970

BC: Task: GEOMETRYOPTIMIZATION
BC: +++++++++++++++ Summary of boundary conditions ++++++++++++++
BC: |       Component       |     Keyword     |   Periodicity   |
BC: |                       |                 |     X  Y  Z [1] |
BC: |-----------------------------------------------------------|
BC: | Ion-ion               | ion_ion_bc [2]  |     P  P  P     |
BC: | Local pseudopotential | pspot_bc [3]    |     P  P  P     |
BC: | Multigrid solver      | multigrid_bc    |     P  P  P     |
BC: | Smeared ions          | smeared_ion_bc  |     P  P  P     |
BC: | Van der Waals         | vdw_bc          |     P  P  P     |
BC: +++++++++++++++++++++++++++++++++++++++++++++++++++++++++++++
BC: P: Periodic, O: Open.
BC: [1] Not strictly along X, Y, Z but rather along lattice vectors A1, A2, A3.
BC: [2] Also affected by: pbc_correction_cutoff, cutoff_coulomb_type,
BC:     is_smeared_ion_rep, is_implicit_solvent, openbc_ion_ion.
BC: [3] Also affected by: is_smeared_ion_rep, is_implicit_solvent, openbc_pspot.

================================================================================
<<<<<<<<<<<<<<<< Resuming previous ONETEP Geometry Optimisation >>>>>>>>>>>>>>>>
================================================================================

 Geometry Optimisation: output file is "graphite.geom"
 
 Reading continuation file "graphite.continuation" ...done
 Geometry Optimisation: read_tightbox_ngwfs parameter over-ridden to TRUE
 Geometry Optimisation: read_hamiltonian parameter over-ridden to T
 
                           -------------------------------
                                     Cell Contents
                           -------------------------------
 
            xxxxxxxxxxxxxxxxxxxxxxxxxxxxxxxxxxxxxxxxxxxxxxxxxxxxxxxxxxxx
            x  Element    Atom      Absolute co-ordinates of atoms     x
            x            Number        x           y           z       x
            x----------------------------------------------------------x
            x    Li        1       20.353017    6.752263   16.456317   x
            x    Li        2       15.810893    9.414562   16.453811   x
            x    Li        3       20.377757   12.013554   16.639894   x
            x    Li        4       15.725129    4.110555   16.701855   x
            x    Li        5       18.047519    8.112025   21.392448   x
            x    C         6       18.911375    9.195810   12.826381   x
            x    C         7       13.479264    9.207202   12.822796   x
            x    C         8       14.835869   11.560239   12.826317   x
            x    C         9       17.556178   11.559523   12.895585   x
            x    C        10       51.197997   27.833283   12.943962   x
            x    C        11       45.814559   27.833369   12.947352   x
            x    C        12       47.156747   30.168432   12.945420   x
            x    C        13       49.855948   30.168298   12.943768   x
            x    C        14       14.837645    6.853158   12.891058   x
            x    C        15       17.563718    6.860170   12.815788   x
            x    C        16       21.613380   13.892468   12.911854   x
            x    C        17       18.904568   13.891367   12.895885   x
            x    C        18       13.503266   13.882218   12.850532   x
            x    C        19       14.853990   16.205649   12.919236   x
            x    C        20       17.559791   16.212281   12.933722   x
            x    C        21       47.156685   25.497956   12.947733   x
            x    C        22       49.856119   25.497831   12.945956   x
            x    C        23       53.877940   32.492274   12.950938   x
            x    C        24       51.191319   32.492451   12.926244   x
            x    C        25       45.821159   32.492438   12.926939   x
            x    C        26       47.156776   34.816563   12.951730   x
            x    C        27       49.855912   34.816814   12.949808   x
            x    C        28       14.844031    2.176443   12.913617   x
            x    C        29       17.565368    2.180490   12.957821   x
            x    C        30       22.958679    2.179176   12.928942   x
            x    C        31        9.470199    2.189240   12.937943   x
            x    C        32       63.281527    2.207362   12.960029   x
            x    C        33        6.774099    2.192154   12.948426   x
            x    C        34       31.029229    2.205255   12.955887   x
            x    C        35        1.408561    2.205649   12.958683   x
            x    C        36       25.657507    2.186227   12.936303   x
            x    C        37       33.726888    2.207473   12.961769   x
            x    C        38       39.093437    2.196767   12.963388   x
            x    C        39       55.219193    2.196789   12.958597   x
            x    C        40       57.918213    2.196784   12.957815   x
            x    C        41       47.157175    2.208201   12.952630   x
            x    C        42       41.792432    2.197113   12.960845   x
            x    C        43       49.855698    2.208199   12.950375   x
            x    C        44       18.910202    4.512063   12.894978   x
            x    C        45       13.492796    4.521444   12.889739   x
            x    C        46       10.804173    4.524562   12.927573   x
            x    C        47       27.008424    4.530232   12.935292   x
            x    C        48        5.427756    4.530046   12.952077   x
            x    C        49       21.615707    4.511513   12.890184   x
            x    C        50       59.260252    4.533177   12.956656   x
            x    C        51        2.745468    4.532058   12.937445   x
            x    C        52       35.065335    4.531974   12.941729   x
            x    C        53       61.945060    4.532522   12.937601   x
            x    C        54       29.691744    4.531596   12.926629   x
            x    C        55       43.135059    4.533041   12.959739   x
            x    C        56       51.191105    4.532787   12.934233   x
            x    C        57       37.750394    4.533080   12.963566   x
            x    C        58       53.876660    4.532988   12.958444   x
            x    C        59       45.821180    4.532811   12.935795   x
            x    C        60       22.972424    6.862407   12.897472   x
            x    C        61       63.281141    6.858169   12.962868   x
            x    C        62        6.771345    6.869024   12.940753   x
            x    C        63       31.031768    6.857570   12.953510   x
            x    C        64       39.094202    6.868966   12.960762   x
            x    C        65       57.917638    6.868900   12.955019   x
            x    C        66        1.406950    6.858136   12.961793   x
            x    C        67        9.460941    6.868164   12.913060   x
            x    C        68       25.669281    6.866364   12.928849   x
            x    C        69       33.727311    6.858074   12.961840   x
            x    C        70       55.219158    6.868963   12.957445   x
            x    C        71       47.157381    6.857484   12.962288   x
            x    C        72       41.791922    6.869090   12.959971   x
            x    C        73       49.855765    6.857633   12.959970   x
            x    C        74       51.197672    9.193728   12.958709   x
            x    C        75       59.253809    9.193649   12.934095   x
            x    C        76        2.751789    9.195172   12.958591   x
            x    C        77       27.007283    9.197882   12.929655   x
            x    C        78       35.072989    9.194510   12.961668   x
            x    C        79       43.128595    9.193630   12.940234   x
            x    C        80       53.883072    9.193644   12.936663   x
            x    C        81       61.938360    9.194411   12.958303   x
            x    C        82        5.433214    9.196380   12.924376   x
            x    C        83       21.621764    9.203033   12.908435   x
            x    C        84       29.685552    9.196019   12.953410   x
            x    C        85       37.756984    9.193871   12.940037   x
            x    C        86       45.814695    9.193713   12.962910   x
            x    C        87       10.795953    9.200711   12.847497   x
            x    C        88       47.157443   11.529566   12.961348   x
            x    C        89       55.219219   11.518474   12.960728   x
            x    C        90       63.282083   11.530589   12.957895   x
            x    C        91       31.031582   11.533992   12.951419   x
            x    C        92       39.093970   11.519043   12.963109   x
            x    C        93       49.855656   11.529496   12.959052   x
            x    C        94       57.918039   11.518738   12.957283   x
            x    C        95        1.408240   11.532050   12.957485   x
            x    C        96       33.727340   11.531280   12.957605   x
            x    C        97       41.791983   11.518324   12.963133   x
            x    C        98        6.773378   11.523083   12.935050   x
            x    C        99       22.969089   11.534609   12.953984   x
            x    C       100       25.669943   11.530289   12.960938   x
            x    C       101        9.468162   11.525756   12.893437   x
            x    C       102       45.821256   13.854138   12.940722   x
            x    C       103       43.134764   13.854539   12.961834   x
            x    C       104       51.191115   13.854182   12.939096   x
            x    C       105       59.260422   13.854800   12.955568   x
            x    C       106       35.065524   13.857024   12.940056   x
            x    C       107       53.877053   13.854670   12.960565   x
            x    C       108       61.946205   13.855524   12.936079   x
            x    C       109       29.691932   13.860108   12.927349   x
            x    C       110       37.750887   13.855368   12.962518   x
            x    C       111        2.747479   13.856849   12.937684   x
            x    C       112       27.007847   13.864987   12.950147   x
            x    C       113        5.431744   13.860126   12.950019   x
            x    C       114       10.819949   13.871185   12.891549   x
            x    C       115       47.157009   16.178709   12.963793   x
            x    C       116       55.219799   16.190278   12.958298   x
            x    C       117       41.792088   16.190153   12.960447   x
            x    C       118       49.856063   16.178769   12.961562   x
            x    C       119       39.093447   16.191213   12.960879   x
            x    C       120       63.283475   16.179585   12.962762   x
            x    C       121       31.028823   16.185719   12.954431   x
            x    C       122       57.918539   16.190580   12.955635   x
            x    C       123       33.727644   16.181642   12.962128   x
            x    C       124        6.778455   16.197225   12.949060   x
            x    C       125        1.411447   16.182072   12.962791   x
            x    C       126       25.661086   16.209907   12.938811   x
            x    C       127       22.959429   16.220517   12.930331   x
            x    C       128        9.479000   16.201453   12.931417   x
            x    C       129       51.197779   18.514350   12.956273   x
            x    C       130       45.814623   18.514380   12.959992   x
            x    C       131       43.127982   18.514639   12.938813   x
            x    C       132       53.884143   18.514578   12.935915   x
            x    C       133       35.070605   18.517933   12.962358   x
            x    C       134       59.254900   18.515006   12.936080   x
            x    C       135       37.756841   18.515363   12.940556   x
            x    C       136       61.941376   18.515724   12.959712   x
            x    C       137       29.684821   18.522402   12.950316   x
            x    C       138        2.755589   18.516802   12.960404   x
            x    C       139       26.995155   18.525852   12.921538   x
            x    C       140        5.442784   18.519405   12.937894   x
            x    C       141       10.820756   18.527037   12.924942   x
            x    C       142       18.914220   18.536477   12.937467   x
            x    C       143       21.610369   18.539248   12.912264   x
            x    C       144       13.511540   18.529318   12.941232   x
            x    C       145       47.156881   20.849913   12.952850   x
            x    C       146       49.856088   20.849602   12.951009   x
            x    C       147       55.219954   20.838645   12.959058   x
            x    C       148       41.792333   20.839068   12.960364   x
            x    C       149       31.026904   20.855177   12.958134   x
            x    C       150       39.092924   20.839768   12.962502   x
            x    C       151       63.284634   20.850412   12.959533   x
            x    C       152       33.727306   20.852725   12.960683   x
            x    C       153       57.919229   20.839357   12.958225   x
            x    C       154        1.413372   20.851768   12.959343   x
            x    C       155        6.781936   20.843608   12.963508   x
            x    C       156       22.950216   20.852181   12.948966   x
            x    C       157       25.654343   20.851568   12.950662   x
            x    C       158       14.862598   20.863612   12.952039   x
            x    C       159        9.484475   20.845281   12.963946   x
            x    C       160       17.565922   20.864609   12.946938   x
            x    C       161       51.191636   23.173708   12.927105   x
            x    C       162       45.821052   23.173859   12.927850   x
            x    C       163       43.134406   23.174509   12.953598   x
            x    C       164       59.261425   23.174484   12.955774   x
            x    C       165       37.750469   23.175062   12.960073   x
            x    C       166       53.878274   23.174106   12.953544   x
            x    C       167       26.998499   23.181397   12.960527   x
            x    C       168       35.063837   23.176475   12.939976   x
            x    C       169        2.751167   23.174738   12.939069   x
            x    C       170       29.688235   23.179638   12.939780   x
            x    C       171       61.947890   23.174418   12.937530   x
            x    C       172       10.831125   23.180209   12.964430   x
            x    C       173       18.911245   23.184481   12.934057   x
            x    C       174        5.438983   23.176389   12.961625   x
            x    C       175       21.600809   23.185552   12.954683   x
            x    C       176       13.521636   23.180395   12.940900   x
            x    C       177       55.220533   25.509167   12.951359   x
            x    C       178       31.024735   25.501158   12.963509   x
            x    C       179       39.093201   25.510070   12.955799   x
            x    C       180       63.284933   25.497955   12.963152   x
            x    C       181        6.784027   25.509890   12.960970   x
            x    C       182       25.651539   25.514907   12.961311   x
            x    C       183       33.725869   25.500063   12.962862   x
            x    C       184       41.792023   25.509581   12.952617   x
            x    C       185       57.919337   25.509215   12.952428   x
            x    C       186        1.414217   25.498203   12.962261   x
            x    C       187       22.948626   25.514372   12.962796   x
            x    C       188       14.865113   25.502196   12.967270   x
            x    C       189        9.485945   25.510718   12.965821   x
            x    C       190       17.566906   25.502645   12.966005   x
            x    C       191       18.916787   27.834386   12.965600   x
            x    C       192       26.990941   27.835442   12.939224   x
            x    C       193       35.069260   27.834372   12.959620   x
            x    C       194       59.255501   27.832881   12.933029   x
            x    C       195        2.757636   27.832322   12.958659   x
            x    C       196       10.826368   27.830823   12.945323   x
            x    C       197       21.605760   27.834480   12.944620   x
            x    C       198       29.680423   27.835404   12.958635   x
            x    C       199       37.756233   27.833812   12.935242   x
            x    C       200       53.884655   27.832917   12.926595   x
            x    C       201       61.941650   27.832950   12.959053   x
            x    C       202        5.445804   27.831869   12.937965   x
            x    C       203       13.516451   27.832520   12.965211   x
            x    C       204       43.128078   27.833256   12.929113   x
            x    C       205       14.864177   30.161553   12.957842   x
            x    C       206       22.948301   30.156548   12.963784   x
            x    C       207       31.024791   30.169328   12.958924   x
            x    C       208       63.284344   30.168162   12.959308   x
            x    C       209        6.782483   30.153016   12.962668   x
            x    C       210       17.565994   30.163264   12.959801   x
            x    C       211       25.651768   30.155628   12.962025   x
            x    C       212       33.725645   30.169502   12.958761   x
            x    C       213        1.413037   30.166834   12.958911   x
            x    C       214        9.485191   30.152388   12.964210   x
            x    C       215       39.092972   30.157390   12.956938   x
            x    C       216       55.220183   30.156915   12.953115   x
            x    C       217       57.919433   30.156710   12.953391   x
            x    C       218       41.792333   30.157308   12.954448   x
            x    C       219       13.519062   32.482265   12.931100   x
            x    C       220       10.828442   32.482623   12.952571   x
            x    C       221       18.910181   32.483993   12.939073   x
            x    C       222       26.997597   32.490786   12.957931   x
            x    C       223        2.749067   32.490495   12.938304   x
            x    C       224       21.600636   32.484711   12.958527   x
            x    C       225       29.687350   32.491487   12.937888   x
            x    C       226       61.947543   32.491589   12.935573   x
            x    C       227        5.437048   32.488809   12.957936   x
            x    C       228       35.062931   32.492666   12.937680   x
            x    C       229       59.261069   32.491983   12.951952   x
            x    C       230       37.749946   32.493146   12.956391   x
            x    C       231       43.134557   32.492425   12.951077   x
            x    C       232       14.857249   34.796787   12.955779   x
            x    C       233       22.949480   34.820369   12.955969   x
            x    C       234        9.480254   34.819149   12.947297   x
            x    C       235       17.566284   34.801184   12.966651   x
            x    C       236        6.777924   34.821172   12.949893   x
            x    C       237       31.025986   34.815182   12.962860   x
            x    C       238       63.283294   34.815677   12.961873   x
            x    C       239       25.653444   34.820613   12.950239   x
            x    C       240        1.411511   34.813609   12.961803   x
            x    C       241       39.092987   34.827859   12.954764   x
            x    C       242       33.726206   34.816790   12.963259   x
            x    C       243       57.918783   34.827253   12.950329   x
            x    C       244       55.219895   34.827924   12.950748   x
            x    C       245       41.792225   34.827921   12.952201   x
            x    C       246       18.917480   37.128784   12.969833   x
            x    C       247       13.500237   37.126085   12.939890   x
            x    C       248       10.812204   37.135370   12.915558   x
            x    C       249       21.610815   37.133528   12.932534   x
            x    C       250        2.753626   37.149924   12.957529   x
            x    C       251       26.994357   37.146096   12.926379   x
            x    C       252        5.438908   37.146206   12.928640   x
            x    C       253       29.683381   37.149008   12.955909   x
            x    C       254       61.939997   37.150969   12.958640   x
            x    C       255       35.070254   37.151269   12.962471   x
            x    C       256       59.254200   37.151875   12.933239   x
            x    C       257       37.756360   37.152584   12.938156   x
            x    C       258       43.128249   37.152181   12.933087   x
            x    C       259       51.197454   37.152428   12.949037   x
            x    C       260       53.883634   37.152021   12.930122   x
            x    C       261       45.814651   37.152425   12.952898   x
            x    Li      262        0.051967   37.138946    9.393585   x
            x    Li      263        0.056478   27.818272    9.395745   x
            x    Li      264        0.055339   18.498297    9.394425   x
            x    Li      265        0.050699    9.177530    9.393994   x
            x    Li      266        8.132887   32.461535    9.394596   x
            x    Li      267        8.137011   23.162995    9.396526   x
            x    Li      268        8.109786   13.861700    9.375613   x
            x    Li      269        8.108874    4.510823    9.384562   x
            x    Li      270       16.202759    9.203380    9.333355   x
            x    Li      271       16.215967   18.535716    9.378615   x
            x    Li      272       16.222960   27.816236    9.390324   x
            x    Li      273       16.231442   37.096922    9.397543   x
            x    Li      274       24.319919   32.463145    9.391563   x
            x    Li      275       24.322201   23.172323    9.390201   x
            x    Li      276       24.344297   13.855893    9.391480   x
            x    Li      277       24.356730    4.490540    9.378280   x
            x    Li      278       32.389556   37.136676    9.394060   x
            x    Li      279       32.386351   27.819073    9.395238   x
            x    Li      280       32.388377   18.502669    9.393367   x
            x    Li      281       32.405250    9.178097    9.393380   x
            x    Li      282       40.442802   32.476294    9.387703   x
            x    Li      283       40.443052   23.158864    9.390198   x
            x    Li      284       40.446097   13.840216    9.395950   x
            x    Li      285       40.445949    4.517386    9.396160   x
            x    Li      286       48.489821   37.141091    9.384942   x
            x    Li      287       48.490818   27.818010    9.378232   x
            x    Li      288       48.490019   18.496219    9.391228   x
            x    Li      289       48.489908    9.177109    9.395661   x
            x    Li      290       56.549709   32.476226    9.385592   x
            x    Li      291       56.549899   23.158691    9.388465   x
            x    Li      292       56.548135   13.840698    9.394014   x
            x    Li      293       56.547998    4.517236    9.394064   x
            x    C       294       18.916534    9.193889    5.859795   x
            x    C       295       13.522556    9.194096    5.839388   x
            x    C       296       14.867748   11.530964    5.837881   x
            x    C       297       17.571004   11.530857    5.850108   x
            x    C       298       51.199547   27.833063    5.813681   x
            x    C       299       45.811625   27.833233    5.810021   x
            x    C       300       47.156093   30.168890    5.813527   x
            x    C       301       49.855345   30.168780    5.815332   x
            x    C       302       14.868178    6.856878    5.848657   x
            x    C       303       17.571212    6.856776    5.856912   x
            x    C       304       21.599147   13.854649    5.855394   x
            x    C       305       18.909675   13.855591    5.873510   x
            x    C       306       13.529426   13.855577    5.851948   x
            x    C       307       14.868504   16.179301    5.823002   x
            x    C       308       17.570763   16.179631    5.831249   x
            x    C       309       47.155882   25.497313    5.808209   x
            x    C       310       49.855555   25.497528    5.810008   x
            x    C       311       53.880617   32.493637    5.813769   x
            x    C       312       51.193361   32.493429    5.836020   x
            x    C       313       45.818038   32.493382    5.834609   x
            x    C       314       47.155893   34.817839    5.812698   x
            x    C       315       49.855575   34.818024    5.814145   x
            x    C       316       14.868932    2.207811    5.858381   x
            x    C       317       17.570922    2.207752    5.859078   x
            x    C       318       22.943398    2.196609    5.832758   x
            x    C       319        9.496485    2.196974    5.830369   x
            x    C       320       63.294094    2.208795    5.824289   x
            x    C       321        6.794626    2.196627    5.819596   x
            x    C       322       31.016783    2.208444    5.823699   x
            x    C       323        1.423760    2.208564    5.824788   x
            x    C       324       25.645836    2.196579    5.816434   x
            x    C       325       33.717337    2.208397    5.823010   x
            x    C       326       39.086989    2.197715    5.820515   x
            x    C       327       55.224564    2.198047    5.816667   x
            x    C       328       57.924433    2.198227    5.820660   x
            x    C       329       47.155928    2.208982    5.816327   x
            x    C       330       41.786930    2.197704    5.818578   x
            x    C       331       49.855476    2.209108    5.817394   x
            x    C       332       18.909917    4.532263    5.885940   x
            x    C       333       13.529684    4.532154    5.876767   x
            x    C       334       10.840227    4.532785    5.843027   x
            x    C       335       26.990501    4.533223    5.819694   x
            x    C       336        5.450138    4.533316    5.817867   x
            x    C       337       21.599301    4.532780    5.856960   x
            x    C       338       59.268020    4.533602    5.825248   x
            x    C       339        2.761555    4.533118    5.841221   x
            x    C       340       35.055318    4.533039    5.842710   x
            x    C       341       61.955931    4.533407    5.844027   x
            x    C       342       29.679444    4.533039    5.841323   x
            x    C       343       43.130678    4.533367    5.821392   x
            x    C       344       51.192968    4.533486    5.839252   x
            x    C       345       37.743428    4.533327    5.823616   x
            x    C       346       53.880614    4.533577    5.818360   x
            x    C       347       45.818308    4.533354    5.839115   x
            x    C       348       22.943847    6.868570    5.859831   x
            x    C       349       63.293669    6.857834    5.819658   x
            x    C       350        6.794197    6.868836    5.822601   x
            x    C       351       31.016926    6.857993    5.821957   x
            x    C       352       39.087123    6.868625    5.825124   x
            x    C       353       57.924418    6.868866    5.824625   x
            x    C       354        1.423831    6.857926    5.819882   x
            x    C       355        9.495782    6.868827    5.835405   x
            x    C       356       25.645927    6.869176    5.836847   x
            x    C       357       33.717818    6.857632    5.818335   x
            x    C       358       55.224664    6.868974    5.822704   x
            x    C       359       47.155670    6.857595    5.818927   x
            x    C       360       41.786881    6.868538    5.824707   x
            x    C       361       49.855767    6.857923    5.819997   x
            x    C       362       51.199106    9.193189    5.824567   x
            x    C       363       59.262042    9.193402    5.842804   x
            x    C       364        2.767588    9.193612    5.822230   x
            x    C       365       26.984181    9.193348    5.856008   x
            x    C       366       35.061726    9.193515    5.818934   x
            x    C       367       43.124386    9.193052    5.843559   x
            x    C       368       53.886901    9.193225    5.842837   x
            x    C       369       61.949880    9.193654    5.820360   x
            x    C       370        5.456221    9.193455    5.840556   x
            x    C       371       21.605553    9.193440    5.888263   x
            x    C       372       29.673152    9.193627    5.827837   x
            x    C       373       37.749787    9.193311    5.842040   x
            x    C       374       45.811993    9.193132    5.821961   x
            x    C       375       10.833151    9.193674    5.857211   x
            x    C       376       47.155865   11.528435    5.825008   x
            x    C       377       55.224465   11.517469    5.819287   x
            x    C       378       63.293944   11.529017    5.822431   x
            x    C       379       31.016885   11.528969    5.825643   x
            x    C       380       39.087029   11.517751    5.821020   x
            x    C       381       49.855552   11.528290    5.826027   x
            x    C       382       57.924598   11.517770    5.820632   x
            x    C       383        1.423707   11.528955    5.822901   x
            x    C       384       33.717476   11.529192    5.821093   x
            x    C       385       41.787054   11.517662    5.821191   x
            x    C       386        6.794186   11.518216    5.816278   x
            x    C       387       22.943619   11.518334    5.858014   x
            x    C       388       25.645931   11.518082    5.838503   x
            x    C       389        9.495890   11.518550    5.825081   x
            x    C       390       45.818253   13.852631    5.844052   x
            x    C       391       43.130806   13.852996    5.823306   x
            x    C       392       51.193086   13.852569    5.844220   x
            x    C       393       59.268207   13.853382    5.824264   x
            x    C       394       35.055297   13.853594    5.841804   x
            x    C       395       53.880568   13.853081    5.820417   x
            x    C       396       61.956017   13.853416    5.842828   x
            x    C       397       29.679029   13.853957    5.843557   x
            x    C       398       37.743329   13.853508    5.822813   x
            x    C       399        2.761558   13.853732    5.839724   x
            x    C       400       26.989852   13.853886    5.826920   x
            x    C       401        5.450090   13.853856    5.813477   x
            x    C       402       10.840164   13.854580    5.825211   x
            x    C       403       47.155931   16.177044    5.820923   x
            x    C       404       55.224756   16.188387    5.822642   x
            x    C       405       41.786830   16.188640    5.824417   x
            x    C       406       49.855569   16.177080    5.821926   x
            x    C       407       39.087152   16.188773    5.824708   x
            x    C       408       63.294092   16.178076    5.820230   x
            x    C       409       31.016217   16.178203    5.820592   x
            x    C       410       57.924445   16.188565    5.824623   x
            x    C       411       33.717265   16.178360    5.819292   x
            x    C       412        6.794854   16.190275    5.813896   x
            x    C       413        1.424185   16.178289    5.820042   x
            x    C       414       25.645031   16.189933    5.826033   x
            x    C       415       22.943518   16.190242    5.836741   x
            x    C       416        9.496363   16.190027    5.816284   x
            x    C       417       51.199461   18.512669    5.823045   x
            x    C       418       45.811932   18.512825    5.820415   x
            x    C       419       43.124521   18.512883    5.842541   x
            x    C       420       53.886766   18.512709    5.842009   x
            x    C       421       35.061071   18.513567    5.821615   x
            x    C       422       59.262410   18.513078    5.844377   x
            x    C       423       37.749094   18.513411    5.843052   x
            x    C       424       61.950150   18.513519    5.822657   x
            x    C       425       29.672150   18.514320    5.822012   x
            x    C       426        2.768260   18.514232    5.823707   x
            x    C       427       26.983136   18.514177    5.840388   x
            x    C       428        5.457074   18.514216    5.839511   x
            x    C       429       10.834915   18.514452    5.834573   x
            x    C       430       18.915534   18.514998    5.820247   x
            x    C       431       21.605034   18.514570    5.844727   x
            x    C       432       13.524274   18.514940    5.811670   x
            x    C       433       47.156126   20.847953    5.819174   x
            x    C       434       49.855338   20.847912    5.820370   x
            x    C       435       55.224794   20.837048    5.817709   x
            x    C       436       41.786730   20.837455    5.818722   x
            x    C       437       31.015850   20.849132    5.823438   x
            x    C       438       39.086657   20.837746    5.820332   x
            x    C       439       63.294559   20.849173    5.825595   x
            x    C       440       33.716754   20.849516    5.823499   x
            x    C       441       57.924807   20.837612    5.821114   x
            x    C       442        1.424625   20.849105    5.826256   x
            x    C       443        6.795477   20.838722    5.819122   x
            x    C       444       22.943166   20.838877    5.816981   x
            x    C       445       25.644714   20.838398    5.815226   x
            x    C       446       14.868860   20.849987    5.807045   x
            x    C       447        9.497007   20.838706    5.815988   x
            x    C       448       17.571155   20.850165    5.808908   x
            x    C       449       51.193454   23.172578    5.835492   x
            x    C       450       45.817992   23.172821    5.834229   x
            x    C       451       43.130717   23.173147    5.816846   x
            x    C       452       59.268635   23.173072    5.824887   x
            x    C       453       37.742693   23.173602    5.822127   x
            x    C       454       53.880558   23.172854    5.815330   x
            x    C       455       26.988890   23.173792    5.815705   x
            x    C       456       35.054290   23.173324    5.843476   x
            x    C       457        2.762831   23.173698    5.845539   x
            x    C       458       29.677797   23.173697    5.840228   x
            x    C       459       61.956676   23.173199    5.845690   x
            x    C       460       10.841303   23.173968    5.818344   x
            x    C       461       18.909663   23.174159    5.832256   x
            x    C       462        5.451666   23.173789    5.823092   x
            x    C       463       21.599100   23.174001    5.816889   x
            x    C       464       13.530565   23.174191    5.831574   x
            x    C       465       55.225118   25.508447    5.817371   x
            x    C       466       31.015583   25.497985    5.819414   x
            x    C       467       39.086495   25.508616    5.821118   x
            x    C       468       63.294602   25.497543    5.822283   x
            x    C       469        6.796031   25.509025    5.823074   x
            x    C       470       25.644555   25.509084    5.814953   x
            x    C       471       33.716617   25.497892    5.819443   x
            x    C       472       41.786441   25.508527    5.817916   x
            x    C       473       57.924657   25.508476    5.821839   x
            x    C       474        1.425085   25.497809    5.823078   x
            x    C       475       22.943309   25.509040    5.817071   x
            x    C       476       14.869138   25.498224    5.812052   x
            x    C       477        9.497098   25.508973    5.821852   x
            x    C       478       17.571237   25.498212    5.811254   x
            x    C       479       18.915446   27.833299    5.816160   x
            x    C       480       26.982971   27.833179    5.835251   x
            x    C       481       35.060559   27.833328    5.819722   x
            x    C       482       59.262578   27.832978    5.840829   x
            x    C       483        2.768926   27.833220    5.825041   x
            x    C       484       10.835669   27.833141    5.839895   x
            x    C       485       21.604916   27.833205    5.835939   x
            x    C       486       29.671763   27.833210    5.819437   x
            x    C       487       37.748909   27.833178    5.839257   x
            x    C       488       53.886841   27.833078    5.834887   x
            x    C       489       61.950521   27.833307    5.821809   x
            x    C       490        5.457660   27.833066    5.842335   x
            x    C       491       13.524978   27.833344    5.817734   x
            x    C       492       43.124319   27.833038    5.834269   x
            x    C       493       14.869288   30.168370    5.819580   x
            x    C       494       22.943215   30.157331    5.813198   x
            x    C       495       31.015752   30.168364    5.821677   x
            x    C       496       63.294597   30.168372    5.824108   x
            x    C       497        6.795706   30.157177    5.817564   x
            x    C       498       17.571026   30.168326    5.818569   x
            x    C       499       25.644847   30.157267    5.810619   x
            x    C       500       33.716556   30.168334    5.821061   x
            x    C       501        1.424808   30.168493    5.825540   x
            x    C       502        9.497294   30.157321    5.817456   x
            x    C       503       39.086355   30.157493    5.815306   x
            x    C       504       55.224907   30.157580    5.812689   x
            x    C       505       57.924742   30.157593    5.816008   x
            x    C       506       41.786695   30.157760    5.813283   x
            x    C       507       13.530577   32.492144    5.842744   x
            x    C       508       10.841297   32.492760    5.823307   x
            x    C       509       18.909707   32.492036    5.841272   x
            x    C       510       26.989126   32.492844    5.815307   x
            x    C       511        2.762487   32.492469    5.844995   x
            x    C       512       21.599250   32.492692    5.820159   x
            x    C       513       29.678100   32.492536    5.839402   x
            x    C       514       61.956353   32.493032    5.842721   x
            x    C       515        5.451383   32.492956    5.822094   x
            x    C       516       35.054507   32.492909    5.840392   x
            x    C       517       59.268508   32.493263    5.820840   x
            x    C       518       37.742775   32.492985    5.818199   x
            x    C       519       43.130586   32.493245    5.815163   x
            x    C       520       14.868781   34.816599    5.827801   x
            x    C       521       22.943610   34.827531    5.824272   x
            x    C       522        9.496796   34.827836    5.828126   x
            x    C       523       17.571275   34.816330    5.826240   x
            x    C       524        6.795452   34.827776    5.825925   x
            x    C       525       31.016042   34.817294    5.820062   x
            x    C       526       63.294143   34.817206    5.820724   x
            x    C       527       25.644976   34.827816    5.819538   x
            x    C       528        1.424483   34.817425    5.823296   x
            x    C       529       39.086856   34.828509    5.819555   x
            x    C       530       33.716992   34.817020    5.818514   x
            x    C       531       57.924465   34.828726    5.820480   x
            x    C       532       55.224799   34.828926    5.817105   x
            x    C       533       41.786676   34.828704    5.817957   x
            x    C       534       18.915869   37.151896    5.840730   x
            x    C       535       13.524301   37.151995    5.841973   x
            x    C       536       10.834829   37.152111    5.855215   x
            x    C       537       21.605448   37.151977    5.853204   x
            x    C       538        2.768052   37.152556    5.825881   x
            x    C       539       26.983621   37.152159    5.839399   x
            x    C       540        5.456903   37.152489    5.844617   x
            x    C       541       29.672579   37.152553    5.822088   x
            x    C       542       61.949808   37.153129    5.821581   x
            x    C       543       35.061192   37.152999    5.820455   x
            x    C       544       59.262195   37.153138    5.842124   x
            x    C       545       37.749213   37.152787    5.840597   x
            x    C       546       43.124456   37.153038    5.837510   x
            x    C       547       51.199506   37.153634    5.816689   x
            x    C       548       53.886690   37.153388    5.837066   x
            x    C       549       45.811932   37.153505    5.813944   x
            xxxxxxxxxxxxxxxxxxxxxxxxxxxxxxxxxxxxxxxxxxxxxxxxxxxxxxxxxxxx
 

LBFGS: continuation file name is "graphite.continuation"
 LBFGS: Restarting previous  geometry optimization.
 avg_mass=  21271.333544933463
 Enthalpy contributions:
                  total energy=  -2.96750762E+003 Eh
        diagonal pressure term=   0.00000000E+000 Eh
    off-diagonal pressure term=   0.00000000E+000 Eh
 LBFGS: finished iteration   0  with enthalpy= -2.967507622005E+003 Eh
  
 +-----------+-----------------+-----------------+------------+-----+ <-- LBFGS
 | Parameter |      value      |    tolerance    |    units   | OK? | <-- LBFGS
 +-----------+-----------------+-----------------+------------+-----+ <-- LBFGS
 |  dE/ion   |   0.000000E+000 |   1.000000E-006 |         Eh | No  | <-- LBFGS
 |  |F|max   |   1.076823E-003 |   2.000000E-003 |    Eh/Bohr | Yes | <-- LBFGS
 |  |dR|max  |   0.000000E+000 |   5.000000E-003 |       Bohr | No  | <-- LBFGS
 +-----------+-----------------+-----------------+------------+-----+ <-- LBFGS
  

================================================================================
 Starting LBFGS iteration    1 ...
================================================================================
 Writing xyz coordinates to file "graphite.xyz" ... done

 Writing continuation file "graphite.continuation" ...done
 Backing up NGWFs to file "graphite.tightbox_ngwfs.bfgs_back" ... done
 Backing up Hamiltonian to file "graphite.ham.bfgs_back" ... done
  
 +------------+-------------+-------------+-----------------+ <-- min LBFGS
 |    Step    |   lambda    |   F.delta   |    enthalpy     | <-- min LBFGS
 +------------+-------------+-------------+-----------------+ <-- min LBFGS
 |  previous  |    0.000000 |    0.000050 |    -2967.507622 | <-- min LBFGS
 +------------+-------------+-------------+-----------------+ <-- min LBFGS
  

--------------------------------------------------------------------------------
 LBFGS: starting iteration   1 with trial guess (lambda=    1.000000)
--------------------------------------------------------------------------------
 
                           -------------------------------
                                     Cell Contents
                           -------------------------------
 
            xxxxxxxxxxxxxxxxxxxxxxxxxxxxxxxxxxxxxxxxxxxxxxxxxxxxxxxxxxxx
            x  Element    Atom      Absolute co-ordinates of atoms     x
            x            Number        x           y           z       x
            x----------------------------------------------------------x
            x    Li        1       20.353595    6.751950   16.455019   x
            x    Li        2       15.810898    9.414559   16.452683   x
            x    Li        3       20.378146   12.013578   16.638755   x
            x    Li        4       15.725826    4.110123   16.700580   x
            x    Li        5       18.047828    8.111919   21.392959   x
            x    C         6       18.911033    9.195575   12.826211   x
            x    C         7       13.480117    9.206681   12.822427   x
            x    C         8       14.836534   11.559448   12.825970   x
            x    C         9       17.556706   11.558430   12.896527   x
            x    C        10       51.197784   27.833263   12.943977   x
            x    C        11       45.814929   27.833343   12.947320   x
            x    C        12       47.156988   30.168239   12.945393   x
            x    C        13       49.855898   30.168082   12.943728   x
            x    C        14       14.838554    6.853486   12.891875   x
            x    C        15       17.563904    6.860704   12.815242   x
            x    C        16       21.613316   13.891678   12.913029   x
            x    C        17       18.904351   13.890604   12.897473   x
            x    C        18       13.503536   13.881544   12.849931   x
            x    C        19       14.854003   16.205352   12.919795   x
            x    C        20       17.560152   16.212090   12.935142   x
            x    C        21       47.156898   25.498068   12.947730   x
            x    C        22       49.856090   25.498003   12.945937   x
            x    C        23       53.877703   32.492126   12.951100   x
            x    C        24       51.191179   32.492182   12.926137   x
            x    C        25       45.821418   32.492221   12.926760   x
            x    C        26       47.156842   34.816368   12.951927   x
            x    C        27       49.855907   34.816619   12.949972   x
            x    C        28       14.844223    2.177181   12.914920   x
            x    C        29       17.565639    2.181158   12.959631   x
            x    C        30       22.958512    2.179545   12.928803   x
            x    C        31        9.470237    2.189112   12.938006   x
            x    C        32       63.281900    2.207109   12.960049   x
            x    C        33        6.773391    2.191968   12.948102   x
            x    C        34       31.029522    2.205069   12.955946   x
            x    C        35        1.408604    2.205588   12.958651   x
            x    C        36       25.657922    2.186148   12.936273   x
            x    C        37       33.726827    2.207170   12.961768   x
            x    C        38       39.093131    2.196829   12.963598   x
            x    C        39       55.219104    2.196824   12.958865   x
            x    C        40       57.918231    2.196628   12.958006   x
            x    C        41       47.157280    2.208191   12.952559   x
            x    C        42       41.792303    2.197127   12.961048   x
            x    C        43       49.855648    2.208209   12.950264   x
            x    C        44       18.909643    4.513129   12.895013   x
            x    C        45       13.493301    4.521967   12.890991   x
            x    C        46       10.804291    4.524717   12.928816   x
            x    C        47       27.008649    4.530251   12.935305   x
            x    C        48        5.427432    4.529948   12.951888   x
            x    C        49       21.615097    4.512290   12.889637   x
            x    C        50       59.260665    4.533035   12.956791   x
            x    C        51        2.744923    4.531710   12.937182   x
            x    C        52       35.065160    4.531864   12.941654   x
            x    C        53       61.945513    4.532354   12.937348   x
            x    C        54       29.692334    4.531289   12.926294   x
            x    C        55       43.135225    4.533039   12.959912   x
            x    C        56       51.190920    4.532901   12.934037   x
            x    C        57       37.750135    4.532898   12.963691   x
            x    C        58       53.876413    4.533026   12.958618   x
            x    C        59       45.821349    4.532953   12.935557   x
            x    C        60       22.971490    6.862907   12.897237   x
            x    C        61       63.281424    6.858018   12.963004   x
            x    C        62        6.770877    6.868913   12.940681   x
            x    C        63       31.031772    6.857557   12.953401   x
            x    C        64       39.093835    6.868978   12.960756   x
            x    C        65       57.917421    6.868854   12.955028   x
            x    C        66        1.407225    6.858097   12.961865   x
            x    C        67        9.461406    6.868140   12.913457   x
            x    C        68       25.668925    6.866308   12.928728   x
            x    C        69       33.727616    6.857897   12.961940   x
            x    C        70       55.218936    6.868999   12.957535   x
            x    C        71       47.157540    6.857553   12.962453   x
            x    C        72       41.791900    6.869044   12.959990   x
            x    C        73       49.855732    6.857743   12.960091   x
            x    C        74       51.197498    9.193737   12.958798   x
            x    C        75       59.254063    9.193763   12.933861   x
            x    C        76        2.751390    9.195287   12.958694   x
            x    C        77       27.007017    9.197978   12.930068   x
            x    C        78       35.072668    9.194535   12.961839   x
            x    C        79       43.128830    9.193700   12.940075   x
            x    C        80       53.882745    9.193726   12.936449   x
            x    C        81       61.938776    9.194453   12.958324   x
            x    C        82        5.433123    9.196428   12.924300   x
            x    C        83       21.620988    9.203018   12.908968   x
            x    C        84       29.685981    9.196043   12.953335   x
            x    C        85       37.756696    9.193950   12.939702   x
            x    C        86       45.814900    9.193732   12.962996   x
            x    C        87       10.796567    9.200756   12.846994   x
            x    C        88       47.157623   11.529538   12.961366   x
            x    C        89       55.219026   11.518468   12.960895   x
            x    C        90       63.282289   11.530871   12.957865   x
            x    C        91       31.031734   11.533938   12.951050   x
            x    C        92       39.093496   11.519142   12.963165   x
            x    C        93       49.855662   11.529419   12.959030   x
            x    C        94       57.917865   11.518943   12.957380   x
            x    C        95        1.408471   11.532233   12.957367   x
            x    C        96       33.727669   11.531638   12.957603   x
            x    C        97       41.791933   11.518417   12.963207   x
            x    C        98        6.772849   11.523277   12.935322   x
            x    C        99       22.968592   11.534191   12.955910   x
            x    C       100       25.669828   11.530222   12.961916   x
            x    C       101        9.468195   11.525680   12.893392   x
            x    C       102       45.821377   13.854084   12.940497   x
            x    C       103       43.134844   13.854647   12.961937   x
            x    C       104       51.191018   13.854139   12.938906   x
            x    C       105       59.260722   13.854940   12.955650   x
            x    C       106       35.065329   13.857106   12.940059   x
            x    C       107       53.876895   13.854703   12.960671   x
            x    C       108       61.946500   13.855694   12.935853   x
            x    C       109       29.692414   13.860431   12.926639   x
            x    C       110       37.750544   13.855642   12.962580   x
            x    C       111        2.747345   13.857247   12.937443   x
            x    C       112       27.008016   13.865146   12.950014   x
            x    C       113        5.431405   13.860412   12.950225   x
            x    C       114       10.819810   13.871147   12.891371   x
            x    C       115       47.157109   16.178823   12.963975   x
            x    C       116       55.219723   16.190265   12.958354   x
            x    C       117       41.791875   16.190243   12.960449   x
            x    C       118       49.856084   16.178815   12.961692   x
            x    C       119       39.093058   16.191137   12.960865   x
            x    C       120       63.283848   16.179730   12.962940   x
            x    C       121       31.029252   16.185716   12.954429   x
            x    C       122       57.918537   16.190579   12.955602   x
            x    C       123       33.727527   16.181913   12.962333   x
            x    C       124        6.777991   16.197492   12.949196   x
            x    C       125        1.411602   16.182046   12.962805   x
            x    C       126       25.661223   16.209959   12.938269   x
            x    C       127       22.959470   16.220378   12.930213   x
            x    C       128        9.478427   16.201766   12.931435   x
            x    C       129       51.197658   18.514520   12.956402   x
            x    C       130       45.814700   18.514528   12.960100   x
            x    C       131       43.127991   18.514776   12.938699   x
            x    C       132       53.884002   18.514714   12.935746   x
            x    C       133       35.070470   18.517611   12.962509   x
            x    C       134       59.255107   18.514988   12.935902   x
            x    C       135       37.756421   18.515439   12.940314   x
            x    C       136       61.941581   18.515555   12.959824   x
            x    C       137       29.684999   18.522545   12.950303   x
            x    C       138        2.755749   18.516828   12.960326   x
            x    C       139       26.995692   18.526273   12.920956   x
            x    C       140        5.442505   18.519463   12.937596   x
            x    C       141       10.820514   18.527409   12.924926   x
            x    C       142       18.914308   18.536724   12.937491   x
            x    C       143       21.610746   18.539299   12.911745   x
            x    C       144       13.511174   18.529962   12.941165   x
            x    C       145       47.156961   20.850174   12.952881   x
            x    C       146       49.856069   20.849848   12.951012   x
            x    C       147       55.219742   20.838822   12.959281   x
            x    C       148       41.792254   20.839147   12.960546   x
            x    C       149       31.027116   20.855157   12.958271   x
            x    C       150       39.092819   20.839622   12.962691   x
            x    C       151       63.284945   20.850211   12.959560   x
            x    C       152       33.727033   20.852511   12.960666   x
            x    C       153       57.919136   20.839309   12.958333   x
            x    C       154        1.413623   20.851420   12.959251   x
            x    C       155        6.781936   20.843604   12.963665   x
            x    C       156       22.950349   20.852985   12.948955   x
            x    C       157       25.654486   20.851752   12.950783   x
            x    C       158       14.862394   20.864307   12.951700   x
            x    C       159        9.483990   20.845796   12.964154   x
            x    C       160       17.565856   20.865499   12.946362   x
            x    C       161       51.191485   23.173984   12.926894   x
            x    C       162       45.821266   23.174107   12.927564   x
            x    C       163       43.134608   23.174516   12.953752   x
            x    C       164       59.261369   23.174420   12.955841   x
            x    C       165       37.750283   23.174892   12.960127   x
            x    C       166       53.877943   23.174275   12.953675   x
            x    C       167       26.998595   23.181829   12.960814   x
            x    C       168       35.063642   23.176217   12.939754   x
            x    C       169        2.751499   23.174517   12.938906   x
[...]
 C   471 -- C   495       -0.07      0.00      5.39529
 C   478 -- C   493       -0.07      0.00      5.39529
 C   322 -- C   530       -0.07     -0.00      5.39530
 C   385 -- C   407       -0.07      0.00      5.39532
 C   504 -- C   531       -0.07      0.00      5.39533
 C   377 -- C   410       -0.07      0.00      5.39533
 C   505 -- C   532       -0.07      0.00      5.39534
 C   436 -- C   467       -0.07      0.00      5.39535
 C   474 -- C   496       -0.07      0.00      5.39538
 C   435 -- C   473       -0.07      0.00      5.39539
 C   497 -- C   522       -0.07      0.00      5.39540
 C   503 -- C   533       -0.07      0.00      5.39542
 C   443 -- C   477       -0.07      0.00      5.39550
 C   354 -- C   378       -0.07      0.00      5.39559
 C   409 -- C   440       -0.07      0.00      5.39559
 C   468 -- C   501       -0.07      0.00      5.39559
 C   408 -- C   442       -0.07      0.00      5.39563
 C    38 -- C    72       -0.07      0.00      5.39564
 C   320 -- C   528       -0.07      0.00      5.39565
 C   411 -- C   437       -0.07      0.00      5.39567
 C   349 -- C   383       -0.07      0.00      5.39568
 C    99 -- C   126       -0.07      0.00      5.39568
 C   325 -- C   525       -0.07      0.00      5.39569
 C   445 -- C   475       -0.07      0.00      5.39571
 C   494 -- C   527       -0.07      0.00      5.39574
 C   351 -- C   384       -0.07      0.00      5.39576
 C   502 -- C   524       -0.07      0.00      5.39576
 C    63 -- C    96       -0.07      0.00      5.39582
 C   308 -- C   446       -0.07     -0.00      5.39591
 C   120 -- C   154       -0.07      0.00      5.39591
 C    89 -- C   122       -0.07      0.00      5.39592
 C    40 -- C    70       -0.07      0.00      5.39604
 C   357 -- C   379       -0.07      0.00      5.39608
 C    97 -- C   119       -0.07      0.00      5.39613
 C    37 -- C   237       -0.07      0.00      5.39616
 C   317 -- C   520       -0.07      0.00      5.39645
 C   389 -- C   412       -0.07      0.00      5.39657
 C   307 -- C   448       -0.07      0.00      5.39665
 C   387 -- C   414       -0.07      0.00      5.39669
 C    61 -- C    95       -0.07      0.00      5.39674
 C   316 -- C   523       -0.07      0.00      5.39680
 C   386 -- C   416       -0.07      0.00      5.39689
 C    32 -- C   240       -0.07     -0.00      5.39690
 C   222 -- C   224       -0.07      0.00      5.39702
 C   319 -- C   350       -0.07      0.00      5.39704
 C   321 -- C   355       -0.07      0.00      5.39706
 C   214 -- C   236       -0.07      0.00      5.39724
 C   388 -- C   415       -0.07      0.00      5.39724
 C   123 -- C   149       -0.07      0.00      5.39736
 C   324 -- C   348       -0.07     -0.00      5.39743
 C    69 -- C    91       -0.07      0.00      5.39752
 C   167 -- C   175       -0.07      0.00      5.39770
 C   318 -- C   356       -0.07      0.00      5.39773
 C   297 -- C   302       -0.07      0.00      5.39884
 C    20 -- C   127       -0.08      0.00      5.39933
 C   296 -- C   303       -0.07     -0.00      5.39934
 C    46 -- C   247       -0.08      0.00      5.39966
 C   191 -- C   203       -0.07      0.00      5.40017
 C    45 -- C    87       -0.07      0.00      5.40050
 C    17 -- C    18       -0.08      0.00      5.40103
 C    31 -- C    62       -0.07      0.00      5.40251
 C   142 -- C   144       -0.07      0.00      5.40314
 C    98 -- C   128       -0.07      0.00      5.40448
 C    18 -- C    87       -0.07      0.00      5.40717
 C    15 -- C    60       -0.06      0.00      5.40821
 C     6 -- C    49       -0.06      0.00      5.40825
 C    14 -- C    29       -0.06      0.00      5.41038
 C     9 -- C    99       -0.06      0.00      5.41227
 C    30 -- C    68       -0.07      0.00      5.41406
 C    44 -- C    45       -0.06      0.00      5.41635
 C    15 -- C    28       -0.07      0.00      5.41683
 C   246 -- C   247       -0.07      0.00      5.41693
 C   100 -- C   127       -0.07      0.00      5.41707
 C    44 -- C    83       -0.06      0.00      5.41725
 C    17 -- C    83       -0.06      0.00      5.41791
 C     6 -- C    16       -0.06      0.00      5.41879
 C     6 -- C     7       -0.05      0.00      5.43093
 C     8 -- C    15       -0.05      0.00      5.43294
 C     9 -- C    14       -0.05      0.00      5.43368
 Li    2 -- Li    5        0.21      0.00      5.57737
 Li    1 -- Li    5        0.20      0.00      5.61688
=============================================================


============== Orbital energy and occupancy information for spin 1 =============

      Total number of orbitals:    2233
        Occupancy sum (kernel):    1074.530794722
   Occupancy sum (eigenvalues):    1074.530794722
                 HOMO-LUMO gap:       0.000103346 Eh
                 Mid-gap level:      -0.156707591 Eh

                        Orbital | Energy (Eh) | Occupancy
                            1    -1.933090323   1.0000000
                        .......   ...........   .........
                         1066    -0.174704065   0.9863853
                         1067    -0.174464898   0.9854476
                         1068    -0.174040541   0.9836953
                         1069    -0.172281412   0.9742588
                         1070    -0.172215444   0.9737961
                         1071    -0.168377364   0.9288968
                         1072    -0.168336836   0.9281810
                         1073    -0.157659989   0.4104177
                         1074    -0.156823210   0.3564276
                         1075    -0.156759264   0.3545384
                        ....... -- gap at 0K -- .........
                         1076    -0.156655917   0.3481406
                         1077    -0.154801108   0.2448001
                         1078    -0.154640758   0.2375549
                         1079    -0.151818401   0.1250598
                         1080    -0.151497248   0.1154929
                         1081    -0.150993576   0.1021674
                         1082    -0.150647650   0.0946171
                         1083    -0.150244415   0.0854645
                         1084    -0.148794734   0.0593497
                         1085    -0.147189114   0.0390726
                        .......   ...........   .........
                         2233     0.721245565   0.0000000

================================================================================

============== Orbital energy and occupancy information for spin 2 =============

      Total number of orbitals:    2233
        Occupancy sum (kernel):    1074.530794656
   Occupancy sum (eigenvalues):    1074.530794656
                 HOMO-LUMO gap:       0.000103346 Eh
                 Mid-gap level:      -0.156707591 Eh

                        Orbital | Energy (Eh) | Occupancy
                            1    -1.933090323   1.0000000
                        .......   ...........   .........
                         1066    -0.174704065   0.9863853
                         1067    -0.174464899   0.9854476
                         1068    -0.174040541   0.9836953
                         1069    -0.172281412   0.9742588
                         1070    -0.172215444   0.9737961
                         1071    -0.168377364   0.9288968
                         1072    -0.168336836   0.9281810
                         1073    -0.157659989   0.4104177
                         1074    -0.156823210   0.3564276
                         1075    -0.156759264   0.3545384
                        ....... -- gap at 0K -- .........
                         1076    -0.156655917   0.3481406
                         1077    -0.154801108   0.2448001
                         1078    -0.154640758   0.2375548
                         1079    -0.151818401   0.1250598
                         1080    -0.151497248   0.1154929
                         1081    -0.150993576   0.1021674
                         1082    -0.150647649   0.0946171
                         1083    -0.150244415   0.0854645
                         1084    -0.148794734   0.0593497
                         1085    -0.147189114   0.0390726
                        .......   ...........   .........
                         2233     0.721245565   0.0000000

================================================================================

===================== Writing canonical molecular orbitals =====================
    Spin 1
| Orbital  Energy (eV)  Norm     |
| HOMO-5   -4.68622068  1.000000 | 
| HOMO-4   -4.58178122  1.000000 | 
| HOMO-3   -4.58067839  1.000000 | 
| HOMO-2   -4.29014659  1.000000 | 
| HOMO-1   -4.26737669  1.000000 | 
| HOMO     -4.26563662  1.000000 | 
| LUMO     -4.26282442  1.000000 | 
| LUMO+1   -4.21235248  1.000000 | 
| LUMO+2   -4.20798913  1.000000 | 
| LUMO+3   -4.13118889  1.000000 | 
| LUMO+4   -4.12244988  1.000000 | 
| LUMO+5   -4.10874428  1.000000 | 
================================================================================

===================== Writing canonical molecular orbitals =====================
    Spin 2
| Orbital  Energy (eV)  Norm     |
| HOMO-5   -4.68622068  1.000000 | 
| HOMO-4   -4.58178121  1.000000 | 
| HOMO-3   -4.58067839  1.000000 | 
| HOMO-2   -4.29014659  1.000000 | 
| HOMO-1   -4.26737669  1.000000 | 
| HOMO     -4.26563662  1.000000 | 
| LUMO     -4.26282442  1.000000 | 
| LUMO+1   -4.21235248  1.000000 | 
| LUMO+2   -4.20798913  1.000000 | 
| LUMO+3   -4.13118889  1.000000 | 
| LUMO+4   -4.12244988  1.000000 | 
| LUMO+5   -4.10874428  1.000000 | 
================================================================================
 
=============== Density of States (DOS) calculation for UP spin ================
Writing "graphite_UP_DOS.txt" ... done
================================================================================
 
============== Density of States (DOS) calculation for DOWN spin ===============
Writing "graphite_DN_DOS.txt" ... done
================================================================================
 
Writing bands to file "graphite.val_bands" ... done

IS: Calculating electrolyte contribution to the atomic forces ...
================================================================================
 
***********************************************************
********** Summary of Forces (values in Eh/a) *************
*                                                         *
* ---------------------- Minimum ------------------------ *
* Atom:       165, |F|min =    0.00001603                 *
* Components:     Fx|min       Fy|min       Fz|min        *
*               0.00001286  -0.00000687   0.00000667      *
*                                                         *
* ---------------------- Maximum ------------------------ *
* Atom:         1, |F|max =    0.00114939                 *
* Components:     Fx|max       Fy|max       Fz|max        *
*               0.00080025  -0.00043626  -0.00070028      *
*                                                         *
* ---------------- Root Mean Square Force --------------- *
*                  |F|rms =    0.00028039                 *
* Components:     Fx|rms       Fy|rms       Fz|rms        *
*               0.00018097   0.00013734   0.00016435      *
***********************************************************
 

                                                      hartree           kcal/mol
IS: NB: Energy of pure electrolyte:         -0.08106575099391         -50.869526

------------------------------ TIMING INFORMATION ------------------------------
AVERAGE TIME:    1888.610s on    128 proc(s)                                    
TOTAL TIME:      1888.616s on    128 proc(s)                                    
================= AVERAGE TIMINGS FROM ALL PROCS (CUMULATIVE) ==================
|| TAG                                    #calls    cpu time   %total  Gflops ||
|| linalg_invert_sym_matrix             :     2        0.00s   0.000%  ------ || (1 procs only)
|| density_fftbox_interp_mult_imbal     :  1960        0.00s   0.000%  ------ ||
|| onetep.F90 main loop imbalance       :     1        0.00s   0.000%  ------ ||
|| sparse_set_to_garbage                :    24        0.00s   0.000%  ------ ||
|| vdwcorrection_calculate_forces       :     2        0.01s   0.000%  ------ ||
|| ewald_calculate_forces_realspace     :     2        0.01s   0.000%  ------ ||
|| vdwcorrection_calculate_energy       :     2        0.01s   0.001%  ------ ||
|| onetep.F90 final imbalance           :     1        0.02s   0.001%  ------ ||
|| sparse_spam3toblacs_real_fast_imbal  :   172        0.02s   0.001%  ------ ||
|| basis_extract_function_from_box      :   244        0.02s   0.001%  ------ ||
|| pseudopotentials_core_density        :     2        0.04s   0.002%  ------ ||
|| pseudopotentials_local_on_grid       :     2        0.04s   0.002%  ------ ||
|| sparse_blacstospam3_real_fast_imbal  :   164        0.05s   0.003%  ------ ||
|| parallel_prepare_fd_halos_alloc      : 10029        0.06s   0.003%  ------ ||
|| restart_hamiltonian_read             :     2        0.08s   0.004%  ------ ||
|| parallel_prepare_fd_halos_request    : 10029        0.09s   0.005%  ------ ||
|| sparse_spam3toblacs_real_fast_B2     : 22016        0.14s   0.007%  ------ ||
|| restart_hamiltonian_write            :     3        0.14s   0.008%  ------ ||
|| pseudopotentials_nonlocal_mat        :     4        0.15s   0.008%  ------ ||
|| pseudo_make_structure_factor         :     2        0.25s   0.013%  ------ ||
|| parallel_prepare_fd_halos_satisfy    : 10029        0.46s   0.024%  ------ ||
|| ngwf_gradient_coeffs                 :     3        0.55s   0.029%  ------ ||
|| restart_kernel_write                 :     5        0.69s   0.037%  ------ ||
|| sparse_init                          :     2        0.90s   0.048%  ------ ||
|| pseudo_local_calculate_forces        :     2        1.05s   0.056%  ------ ||
|| projectors_func_ovlp_box_spam3       :     4        1.18s   0.063%  ------ ||
|| sparse_embed_hotelling_invert_embed  :     4        1.18s   0.063%  ------ ||
|| fourier_filter_cell                  :    44        1.22s   0.065% 200.579 ||
|| smeared_ion_generate_potential_PBC   :     2        1.24s   0.065%  ------ ||
|| ewald_calculate_energy               :     2        1.26s   0.067%  ------ ||
|| integrals_grad_spam3                 :     2        1.27s   0.067%  ------ ||
|| nonsc_forces_ngwfs_calc              :     2        1.27s   0.067%  ------ ||
|| sparse_trace                         :   648        1.29s   0.069%  ------ ||
|| density_init_guess_real              :     2        1.31s   0.070%  ------ ||
|| pseudo_nlcc_calculate_forces         :     2        1.55s   0.082%  ------ ||
|| projectors_func_grad_ovlp_box_spam3  :     6        1.86s   0.098%  ------ ||
|| pseudo_nl_calculate_forces           :     2        2.10s   0.111%  ------ ||
|| projectors_init_fftbox_recip         :    22        2.13s   0.113%  ------ ||
|| basis_copy_function_to_box           :  2930        2.32s   0.123%  ------ ||
|| fourier_apply_box_pair               :   262        2.45s   0.130%  1.733k ||
|| function_ops_brappd_ketppd_spam3     :     6        2.49s   0.132%  ------ ||
|| energy_and_force_init_cell           :     1        2.52s   0.133%  ------ ||
|| restart_ngwfs_tightbox_input         :     2        2.62s   0.139%  ------ ||
|| boltzmann_init_steric_pot            :     2        3.56s   0.189%  ------ ||
|| parallel_prepare_fd_halos_comms_imbal: 10029        3.82s   0.202%  ------ ||
|| ewald_calculate_forces_recipspace    :     2        3.94s   0.209%  ------ ||
|| ewald_calculate_forces               :     2        3.96s   0.210%  ------ ||
|| integrals_kinetic_spam3              :     4        4.02s   0.213%  ------ ||
|| parallel_prepare_fd_halos_clear      : 10029        4.02s   0.213%  ------ ||
|| eigenstates_calculate                :     1        4.09s   0.217%  ------ ||
|| fourier_interpolate_cell             :    98        4.59s   0.243% 118.839 ||
|| sparse_product                       :   461        5.95s   0.315%  ------ ||
|| sparse_spam3toblacs_real_fast_B1     : 22016        6.22s   0.330%  ------ ||
|| sparse_spam3toblacs_real_fast        :   172        6.68s   0.354%  ------ ||
|| parallel_prepare_fd_halos_comms_wait : 10029        6.76s   0.358%  ------ ||
|| fourier_apply_cell_backward          :   426        6.90s   0.366% 173.510 ||
|| basis_dot_function_with_box          : 474.5k       8.74s   0.463%  ------ ||
|| projectors_gradient_batch            :    12        8.81s   0.466%  ------ ||
|| cell_grid_extract_box_real           :   880       11.05s   0.585%  ------ ||
|| sparse_blacstospam3_real_fast        :   164       11.32s   0.600%  ------ ||
|| xc_energy_potential                  :    51       15.05s   0.797%  ------ ||
|| parallel_prepare_fd_halos            : 10029       15.26s   0.808%  ------ ||
|| restart_ngwfs_tightbox_output        :     2       20.73s   1.098%  ------ ||
|| dense_eigensolve                     :    82       24.29s   1.286%  ------ ||
|| cell_grid_deposit_box_real           :  2460       24.82s   1.314%  ------ ||
|| basis_add_function_to_box            : 1.423M      28.17s   1.491%  ------ ||
|| properties_calculate                 :     1       28.20s   1.493%  ------ ||
|| edft_diag_ngwf_ham                   :    80       29.80s   1.578%  ------ ||
|| fourier_apply_cell_forward           :   418       31.12s   1.648%  37.777 ||
|| ngwf_gradient_build_batch            :    12       37.70s   1.996%  ------ ||
|| integrals_locpot_mat_els_batch       :    76       38.83s   2.056%  ------ ||
|| edft_apply_smearing_operator         :    40       46.18s   2.445%  ------ ||
|| finite_difference_derivative         : 10029       46.26s   2.449%  ------ ||
|| ngwf_gradient_batch                  :    12       61.49s   3.256%  ------ ||
|| ngwf_gradient_lnv                    :     3       63.97s   3.387%  ------ ||
|| hamiltonian_energy_components        :     2       67.62s   3.581%  ------ ||
|| density_batch_row_sums               :   196       68.46s   3.625%  ------ ||
|| density_fftbox_deposit_to_cell       :  1960       88.72s   4.697%  ------ ||
|| implicit_solvent_boltzmann_forces    :     2       96.44s   5.106%  ------ ||
|| potential_apply_to_ngwf_batch        :    76      139.72s   7.398%  ------ ||
|| integrals_locpot_dbl_grid            :    38      178.78s   9.466%  ------ ||
|| dl_mg_solver_calls                   :    49      182.63s   9.670%  ------ ||
|| multigrid_calculate_hartree          :    49      187.82s   9.945%  ------ ||
|| fourier_apply_box                    :  5670      192.30s  10.182%  2.258k ||
|| implicit_solvent_soft_sphere_forces  :     2      200.79s  10.632%  ------ ||
|| smeared_ion_force_correction         :     4      212.86s  11.271%  ------ ||
|| density_fftbox_interpolate_multiply  :  1960      222.00s  11.755%  ------ ||
|| density_batch_interp_deposit         :   196      406.89s  21.544%  ------ ||
|| density_on_dbl_grid                  :    98      492.09s  26.056%  ------ ||
|| forces_calculate                     :     2      540.06s  28.595%  ------ ||
|| hamiltonian_lhxc_calculate           :    45      662.66s  35.087%  ------ ||
|| edft_calculate                       :     3      796.44s  42.171%  ------ ||
|| ngwf_cg_optimise                     :     2      972.18s  51.476%  ------ ||
|| energy_and_forces                    :     2     1880.35s  99.563%  ------ ||
|| total_time                           :     1     1888.61s 100.000%  ------ ||
================================================================================
Overhead of generating timer report: 
- 0 ms averaging over threads,
- 12 ms ensuring consistency across MPI ranks,
- 1 ms printing in order.

Job completed: 31-10-2023 23:19 (+0000)

onetep_launcher: ONETEP seems to have finished correctly (zero exit code).
