==================================================================================
It's Mon 16 Oct 2023 12:42:28 PM BST.
*** Starting onetep_launcher (node nid003627, PIDs 31071)...
    - ONETEP arguments: li.dat
    - Current directory: /mnt/lustre/a2fs-work3/work/e89/e89/arihant/linuc/mu_e/li+
    - Launcher executable directory: /mnt/lustre/a2fs-work3/work/e89/e89/arihant/onetep/utils
    - (-e) ONETEP executable specified through command-line: /work/e89/e89/arihant/onetep/bin/onetep.archer2_2023_cray
      ... trying /work/e89/e89/arihant/onetep/bin/onetep.archer2_2023_cray
          -> looks OK
*** Setting up environment...
    - (-s) Process stack size: unlimited
    - (-t) OMP_NUM_THREADS: 64
    - (-o) OMP_STACKSIZE: 64M
    - (-c) Maximum core file size: 2048000
    - (-d) decfort_dump_flag: n
    - (-m) I_MPI_OFA_TRANSLATION_CACHE: 0
    - (-m) I_MPI_DAPL_TRANSLATION_CACHE: 0
    - (-m) I_MPI_DAPL_UD_TRANSLATION_CACHE: 0
*** Starting ONETEP...
    - /work/e89/e89/arihant/onetep/bin/onetep.archer2_2023_cray li.dat
=================================================================================
_________________________________________________________________________________
 +---------------------------------------------------------------+
 |                                                               |
 |        ####### #     # ####### ####### ####### ######         |
 |        #     # ##    # #          #    #       #     #        |
 |        #     # # #   # #          #    #       #     #        |
 |        #     # #  #  # #####      #    #####   ######         |
 |        #     # #   # # #          #    #       #              |
 |        #     # #    ## #          #    #       #              |
 |        ####### #     # #######    #    ####### #              |
 |                                                               |
 |        Linear-Scaling Ab Initio Total Energy Program          |
 |                                                               |
 |          Release for academic collaborators of ODG            |
 |                                             Version 6.1.59    |
 | Remote: https://github.com/onetep-devel/onetep.git            |
 | Local branch: master                                          |
 | Commit ID: 3df6b8ca88fa1735659d3248d54c94b50edec21b           |
 | Date: Thu Oct 5 13:49:52 2023 +0200                           |
 | Working tree clean                                            |
 |                                                               |
 +---------------------------------------------------------------+
 |                                                               |
 |  Authors:                                                     |
 |  Jacek Dziedzic, Peter D. Haynes, Nicholas D. M. Hine,        |
 |  Arash A. Mostofi, Mike C. Payne and Chris-Kriton Skylaris    |
 |                                                               |
 |  Contributors:                                                |
 |  J. Aarons, L. Andrinopoulos, P. W. Avraam, R. A. Bell,       |
 |  A. Bhandari, G. A. Bramley, R. J. Charlton, S. J. Clark,     |
 |  R. J. Clements, G. C. Constantinescu, F. Corsetti,           |
 |  N. Corsini, O. Dieguez, S. M. M. Dubois, K. K. B. Duff,      |
 |  J. M. Escartin, M. Escobar Azor, A. Greco,                   |
 |  H. Helal, Q. O. Hill, L. P. Lee, J.-H. Li,                   |
 |  E. B. Linscott, G. Moynihan, D. D. O`Regan,                  |
 |  O. K. Okan, M. J. S. Phipps, C. J. Pickard,                  |
 |  J. C. A. Prentice, M. I. J. Probert, L. E. Ratcliff,         |
 |  M. Robinson, A. Ruiz Serrano, M. dos Santos Dias,            |
 |  J. S. Spencer, E. W. Tait, G. Teobaldi, D. Turban,           |
 |  V. Vitale, K. A. Wilkinson, C. Weber, J. C. Womack,          |
 |  N. Yeung and T. J. Zuehlsdorff                               |
 |                                                               |
 |                                   Copyright (c) 2004-2023     |
 |                                                               |
 |  Please cite:                                                 |
 |  "The ONETEP linear-scaling density functional theory program"|
 |   J. Chem. Phys. 152(17) 174111 (2020)                        |
 |                                                               |
 |          in all publications arising from your use of ONETEP. |
 |                                                               |
 +---------------------------------------------------------------+
 |                                                               |
 |   ONETEP is based on developments described in the following  |
 |   publications:                                               |
 |                                                               |
 |  "Nonorthogonal generalized Wannier function pseudopotential  |
 |   plane-wave method".                                         |
 |   C.-K. Skylaris, A. A. Mostofi, P. D. Haynes, O. Dieguez,    |
 |   M. C. Payne.                                                |
 |   Phys. Rev. B 66 035119 (2002).                              |
 |                                                               |
 |  "Preconditioned iterative minimization for linear-scaling    |
 |   electronic structure calculations".                         |
 |   A. A. Mostofi, P. D. Haynes, C.-K. Skylaris, M. C. Payne.   |
 |   J. Chem. Phys. 119(17), pp.8842-8848 (2003).                |
 |                                                               |
 |  "Total-energy calculations on a real space grid with         |
 |   localized functions and a plane-wave basis".                |
 |   A. A. Mostofi, C.-K. Skylaris, P. D. Haynes, M. C. Payne.   |
 |   Comput. Phys. Commun. 147, pp.788-802 (2002).               |
 |                                                               |
 |  "Accurate kinetic energy evaluation in electronic structure  |
 |   calculations with localized functions on real space grids"  |
 |   C.-K. Skylaris, A. A. Mostofi, P. D. Haynes, C. J. Pickard, |
 |   M. C. Payne.                                                |
 |   Comput. Phys. Commun. 140, pp.315-322 (2001).               |
 |                                                               |
 |  "Accurate ionic forces and geometry optimization in linear-  |
 |   scaling density-functional theory with local orbitals"      |
 |   N. D. M. Hine, M. Robinson, P. D. Haynes, C.-K. Skylaris,   |
 |   M. C. Payne, and A. A. Mostofi.                             |
 |   Phys. Rev. B 83 195102 (2011).                              |
 |                                                               |
 +---------------------------------------------------------------+

Job started: 16-10-2023 12:42 (+0100)
 
Reading parameters from file "li.dat" ...... done

If your calculation crashes here, before "Checking processes and threads..."
is displayed, then your stack size is insufficient.
If so, use "ulimit -s unlimited" at runtime.
You can disable this check with "check_stack_size F".

Checking processes and threads...
   Determining the default number of threads...
      No default threads set at compilation time: defaulting to 1.
      OpenMP library call suggests 64 threads.
      Hybrid MPI-OpenMP compilation detected.
      Only 1 process detected: using this value as default.
      Default threads: 64
      Default applies to threads_max and threads_num_fftboxes.
      Settings in the input file override this default.
   ... done

   Running with 1 MPI process.
   There are 1 MPI processes running on the same node as the root process.
   Each MPI process is using: 
               1 threads for simulation cell FFTs.
               1 threads for parallel FFT box operations.
              64 threads for loops over batched FFT box operations.
              64 threads in other parallel regions.
   MPI Interface: S1 (use mpi_f08) (-DMPI -DUSE_MPI_F08).
   MPI_ASYNC_PROTECTS_NONBLOCKING: Yes. MPI_SUBARRAYS_SUPPORTED: Yes.
   GPU Interface: None.
... done

Basic input checks...
Resetting ngwf_cg_rotate to TRUE for EDFT calculations

WARNING: The number of FFT boxes in a batch is not a multiple of the number of
OpenMP threads. Consider changing fftbox_batch_size.
... done

Reading geometry and species blocks from file "li.dat" ...
  Reading POSITIONS geometry from str.xyz

  <species_atomic_set> block not found: NGWF initialisation set to SOLVE
IS: Dielectric excluded regions:
    - NONE.
IS: Assigning soft sphere radii for soft sphere solvation...
IS: No soft sphere radii specified. Default Alvarez radii used for all atoms.

----------- SOFT SPHERE RADII -----------
Li  5.333
-----------------------------------------

    
  Number of PPD points along a3 set to 1.  This is 
  the default value, it may have been provided also in the input file.
... done


--------------------------------------------------------------------------------
---------------------------------- INPUT FILE ----------------------------------
--------------------------------------------------------------------------------

is_dielectric_function soft_sphere                                              
is_implicit_solvent T                                                           
is_smeared_ion_rep T                                                            
is_include_apolar T                                                             
is_pbe                    full                                                  
is_pbe_temperature        298.15                                                
is_pbe_bc_debye_screening T                                                     
is_pbe_neutralisation_scheme counterions_auto                                   
is_pbe_energy_tolerance 1E+50                                                   
is_bc_coarseness 5                                                              
is_bc_threshold 1E-9                                                            
is_bulk_permittivity 90.7                                                       
is_solvent_surf_tension 0.0506 N/m                                              
%block sol_ions                                                                 
Li  +1 1.0                                                                      
PF6 -1 1.0                                                                      
%endblock sol_ions                                                              
is_steric_pot_type M                                                            
is_hc_steric_dens_isovalue  0.001                                               
is_hc_steric_smearing         0.4 bohr                                          
is_steric_write F                                                               
%block species_solvent_radius                                                   
Li 3.0                                                                          
%endblock species_solvent_radius                                                
multigrid_bc:   P P P                                                           
ion_ion_bc:     P P P                                                           
pspot_bc:       P P P                                                           
smeared_ion_bc: P P P                                                           
mg_max_iters_vcycle 500                                                         
mg_vcyc_smoother_iter_pre 4                                                     
mg_vcyc_smoother_iter_post 4                                                    
mg_max_res_ratio 1000.0                                                         
mg_max_iters_newton 300                                                         
edft                    : T                                                     
edft_maxit              : 50                                                    
edft_fermi_thres        : 1e-10                                                 
edft_smearing_width     : 0.1 eV                                                
spin                    : 0.0                                                   
edft_spin_fix           : 2                                                     
spin_polarized          : T                                                     
MAXIT_NGWF_CG           : 200                                                   
cutoff_energy :  1000 eV                                                        
kernel_cutoff : 1000 bohr                                                       
xc_functional PBE                                                               
dispersion 4                                                                    
elec_energy_tol 1E-6 eV                                                         
ngwf_threshold_orig 5E-7                                                        
output_detail VERBOSE                                                           
do_properties T                                                                 
cube_format F                                                                   
dx_format F                                                                     
write_denskern T                                                                
write_tightbox_ngwfs T                                                          
write_hamiltonian T                                                             
%block species                                                                  
Li Li 3 5 8.0                                                                   
%endblock species                                                               
%block species_pot                                                              
Li '/work/e89/e89/arihant/pseudo/Li.usp'                                        
%endblock species_pot                                                           
%BLOCK LATTICE_CART                                                             
ang                                                                             
40.00000000000000      0.000000000000000      0.000000000000000                 
0.000000000000000     40.000000000000000      0.000000000000000                 
0.000000000000000      0.000000000000000     40.000000000000000                 
%ENDBLOCK LATTICE_CART                                                          
POSITIONS_XYZ_FILE str.xyz                                                      
charge 1.0                                                                      

--------------------------------------------------------------------------------
-------------------------------- END INPUT FILE --------------------------------
--------------------------------------------------------------------------------


 
 ESDF WARNING(1): "edftfermithres" (esdf_physical) has no units. Assume "hartree".
 ESDF WARNING(2): "ispbeenergytolerance" (esdf_physical) has no units. Assume "hartree".
<<<<<<<<<<<<<<<<<<<<<<<<<<<<<<<<< Full system >>>>>>>>>>>>>>>>>>>>>>>>>>>>>>>>>>
<<<<<<<<<<<<<<<<<<<<<<<<< Pseudopotential information >>>>>>>>>>>>>>>>>>>>>>>>>>
File: /work/e89/e89/arihant/pseudo/Li.usp [ 2001 points up to Gmax=  52.9 (1/bohr)]
  Atomic number:  3;  ionic charge:  3.000000
    Shell 1: l = 0; rc = 1.19 bohr
    Shell 2: l = 0; rc = 1.25 bohr
<<<<<<<<<<<<<<<<<<<<<<<<<<<<<<<<<<<<<<<<>>>>>>>>>>>>>>>>>>>>>>>>>>>>>>>>>>>>>>>>

-------------------------- Atom counting information ---------------------------
Symbol    Natoms    Nngwfs    Nprojs
  Li         1         5         2
.......   ......    ......    ......
Totals:      1         5         2
--------------------------------------------------------------------------------

=============================== PSINC grid sizes ===============================
                      Simulation cell:  168 x 168 x 168
                              FFT-box:  117 x 117 x 117
                                  PPD:    6 x   6 x   1
Grid space d1=  0.449934793948a0 (KE cutoff=  37.52363Eh =1021.06992eV)
Grid space d2=  0.449934793948a0 (KE cutoff=  37.52363Eh =1021.06992eV)
Grid space d3=  0.449934793948a0 (KE cutoff=  37.52363Eh =1021.06992eV)
================================================================================

********************* Fourier parallelisation information **********************
       Coarse grid (whole simulation cell) dimensions:    168   168   168
          Real-space ('12') slabs/proc (min max mean):    168   168   168
         Recip-space ('23') slabs/proc (min max mean):     85    85    85
********************************************************************************

********************* Fourier parallelisation information **********************
       Double grid (whole simulation cell) dimensions:    336   336   336
          Real-space ('12') slabs/proc (min max mean):    336   336   336
         Recip-space ('23') slabs/proc (min max mean):    169   169   169
********************************************************************************

********************* Fourier parallelisation information **********************
         Fine grid (whole simulation cell) dimensions:    336   336   336
          Real-space ('12') slabs/proc (min max mean):    336   336   336
         Recip-space ('23') slabs/proc (min max mean):    169   169   169
         Grid scale modified to satisfy multigrid solver grid constraints
         Grid scale values after modifification:         2.00  2.00  2.00
********************************************************************************
ONETEP fine grid is 336 x 336 x 336 gridpoints, 75.5890 x 75.5890 x 75.5890 bohr.
FD multigrid is     336 x 336 x 336 gridpoints, 75.5890 x 75.5890 x 75.5890 bohr.


Atom SCF Calculation for Li : Z (AE atom) =   3 : Z (PS atom) =   3
Config String:
Orbitals (num,occ):  3     2.00 1.00 0.00
Orbitals   (num,l):  3        0    0    1
Real-space Grid (nr,dr,rmax): 1343    0.0059612519    8.0000000000
Spherical Bessel Basis (nsws,lmax,cutoff):   37    1  220.4959463253
Confining potential (l,width,scale):  0    3.0000000000  100.0000000000
Confining potential (l,width,scale):  1    3.0000000000  100.0000000000
  1         -3.7050169094   -5.2301177776    2.5388568852   -0.9989538802
  2         -6.0510920273   -4.2679357854    3.2724001845   -1.3422946715
  3         -6.7975021434   -3.8722499620    3.6648237887   -1.5325279919
  4         -7.0147472228   -3.7673066376    3.7864613280   -1.5966989055
  5         -7.0774132854   -3.7446783348    3.8157063634   -1.6161454686
  6         -7.0951992563   -3.7420177453    3.8204515040   -1.6217593843
  7         -7.1001226024   -3.7430426481    3.8200527077   -1.6233132433
  8         -7.1014239576   -3.7441529610    3.8191274553   -1.6237164860
  9         -7.1017352306   -3.7448434699    3.8184905098   -1.6238077213
 10         -7.1017916056   -3.7452114113    3.8181373932   -1.6238209669
 11         -7.1017908912   -3.7453946820    3.8179578223   -1.6238181917
 12         -7.1017822190   -3.7454828903    3.8178702968   -1.6238141227
 13         -7.1017768840   -3.7455162316    3.8178369316   -1.6238119017
 14         -7.1017732849   -3.7455353767    3.8178176959   -1.6238104459
 15         -7.1017709700   -3.7455463461    3.8178066371   -1.6238095253
 16         -7.1017695244   -3.7455526225    3.8178002910   -1.6238089565
 17         -7.1017686390   -3.7455562110    3.8177966534   -1.6238086105
 18         -7.1017681040   -3.7455582619    3.8177945697   -1.6238084022
 19         -7.1017677838   -3.7455594341    3.8177933764   -1.6238082778
 20         -7.1017675934   -3.7455601042    3.8177926929   -1.6238082039
 21         -7.1017674808   -3.7455604874    3.8177923014   -1.6238081602
 22         -7.1017674145   -3.7455607066    3.8177920771   -1.6238081344
Atom SCF converged after  22 iterations to a total energy of     -7.10176741

BC: Task: SINGLEPOINT
BC: +++++++++++++++ Summary of boundary conditions ++++++++++++++
BC: |       Component       |     Keyword     |   Periodicity   |
BC: |                       |                 |     X  Y  Z [1] |
BC: |-----------------------------------------------------------|
BC: | Ion-ion               | ion_ion_bc [2]  |     P  P  P     |
BC: | Local pseudopotential | pspot_bc [3]    |     P  P  P     |
BC: | Multigrid solver      | multigrid_bc    |     P  P  P     |
BC: | Smeared ions          | smeared_ion_bc  |     P  P  P     |
BC: | Van der Waals         | vdw_bc          |     P  P  P     |
BC: +++++++++++++++++++++++++++++++++++++++++++++++++++++++++++++
BC: P: Periodic, O: Open.
BC: [1] Not strictly along X, Y, Z but rather along lattice vectors A1, A2, A3.
BC: [2] Also affected by: pbc_correction_cutoff, cutoff_coulomb_type,
BC:     is_smeared_ion_rep, is_implicit_solvent, openbc_ion_ion.
BC: [3] Also affected by: is_smeared_ion_rep, is_implicit_solvent, openbc_pspot.

WARNING: The number of FFT boxes in a batch is not a multiple of the number of
OpenMP threads. Consider changing fftbox_batch_size.

Determining parallel strategy ...
... using space-filling curve
... NGWF load balancing: max      5;  min      5;  average      5
... Projector load balancing: max      2;  min      2;  average      2
... done
Calculating Ewald energy ...
              Ewald: real-space energy =            0.004556
        Ewald: reciprocal-space energy =            0.005130
         Ewald: (sum_charge)**2 energy =            0.059532
         Ewald: (sum_charge**2) energy =            0.119065
                          Ewald energy =           -0.168911
======================= Empirical dispersion information =======================
Model : Grimme D2
Dispersion Correction Energy: -0.33684994E-09 Hartree
================================================================================
Basis initialisation ...... NGWF spheres initialised
... Projector spheres initialised
... NGWF tight boxes initialised
... Tight-boxes gathered
... NGWF basis size (local,global):         39783        39783
... Nonlocal pseudopotential projector initialisation
... done

========================== Sparse matrix information ===========================
                        Overlap matrix filling: 100.00%
                        Density kernel filling: 100.00% (known to be dense)
              NGWF-Proj overlap matrix filling: 100.00%
                    Hamiltonian matrix filling: 100.00%
                  NGWF diagonal matrix filling: 100.00%
                             KS matrix filling: 100.00% 
                           KSKS matrix filling: 100.00% 
================================================================================

Sparse matrix initialisation ... done

Generating smeared ion density ... done
Smeared ion self correction:     -4.488101
Smeared ion non-self correction: 0.168869
IS: Initialising Boltzmann terms in implicit solvation...
----------------------------------------------------------
|           Boltzmann ions in implicit solvent:          |
+--------------------------------------------------------+
|       Name | Charge |  Conc. (mol/L)  |  Conc. (a.u.)  |
|         Li |  1.000 |    0.10000E+01  |   0.89239E-04  |
|        PF6 | -1.000 |    0.10000E+01  |   0.89239E-04  |
----------------------------------------------------------

IS: Generating smoothed hard-core steric potential ...
IS: - smearing:        0.40000E+00 bohr.
---------------------------------------------------------------
|      Atomic hard-core steric potential radial cut-offs      |
+-------------------------------------------------------------+
|   Species |   Symbol |            Radial cut-off (bohr)     |
|           |          |     solute      solvent        total |
|         1 |       Li |   3.558867 +   3.000000 =   6.558867 |
---------------------------------------------------------------

IS: Debye length is    6.18 bohr. PB equation variant: FULL. Use_fas: F.
IS: Exp_cap:   50.00. Steric pot: SMOOTHED SPHERES.
NGWF initialisation ... done
============ Calculation of NGWF S^-1 using Hotelling algorithm ================ 
         Iteration  |  Frobenius norm and Maximum abs value    (of I-S*S_n^-1)   
               1       0.88435747E-04     0.69293333E-04
               2       0.54439526E-08     0.49895390E-08
               3       0.15724649E-15     0.11102230E-15
================================================================================
Density renormalisation, spin  1 ...
Target Charge:     1.000000000000 ; Input Charge:     1.500049894087
Density renormalisation, spin  2 ...
Target Charge:     1.000000000000 ; Input Charge:     1.500049894087

Generating solute cavity for implicit solvation ... done
MG DL_MG: Calling solver with defect correction order = 8
MG DL_MG: Solver finished
MG Fixed charge (1/2 \int rho_f phi dr) energy term:                   0.707441
MG Mobile charge (1/2 \int rho_m phi dr) energy term:                 -0.000101
MG Osmotic pressure (-kT \int dr \sum_i c_i(r)) energy term:          -0.072686
MG Mobile ion acc. corr. (\int dr \sum_i c_i(r) * V_steric(r)):        0.000032
MG Ion atmosph. rearr. (kT \int dr \sum_i c_i(r)*ln(c_i(r)/c^0):       0.000182
MG Chemical potential (-\sum_i \mu_i \int dr c_i(r)) energy term:     -0.000012
MG                                                               --------------
MG Mean-field contribution to grand potential                          0.634856

MG Check from alternate expression:
MG Fixed charge (1/2 \int rho_f phi dr) energy term:                   0.707441
MG Minus mobile charge (-1/2 \int rho_m phi dr) energy term:           0.000101
MG -kTV\Gamma \sum_i c^bulk_i(r) (osmotic pressure) energy term:      -0.072686
MG                                                               --------------
MG Mean-field contribution to grand potential:                         0.634856

IS: MG box volume:     431893.414 a0^3. Accessible fraction: 0.997248. PBC.
IS: Charge neutralisation scheme: COUNTERIONS_AUTO.

+--------------------------- Chemical potential --------------------------+
|   # | Name | Bulk conc. |    mu_ideal   |   mu_excess   |    mu_total   |
|-------------------------------------------------------------------------|
|   1 |   Li |  0.9884358 |  -0.000010982 |  -0.000001093 |  -0.000012075 |
|   2 |  PF6 |  1.0144533 |   0.000013549 |  -0.000001474 |   0.000012075 |
|-------------------------------------------------------------------------|

+----------------- Boltzmann ion concentration and charge -----------------+
|   # | Name | Bulk conc. | Average conc. | Neutr. ratio |    Total charge |
|--------------------------------------------------------------------------|
|   1 |   Li |  0.9884358 |   0.988435825 |     0.444477 |    37.991165818 | 
|   2 |  PF6 |  1.0144533 |   1.014453344 |     0.555523 |   -38.991165878 | 
+--------------------------------------------------------------------------+
                                                    total:    -1.000000059*

+---- Concentration difference from bulk value on simcell faces (mol/L) ---+
|   # | Name | Face | Bulk conc. | Actual conc. |  Difference |  RMS diff. |
|--------------------------------------------------------------------------|
|   1 |   Li | Xmin |  1.0000000 |    0.9988568 |  -0.0011432 |  0.0017647 | 
|   1 |   Li | Xmax |  1.0000000 |    0.9988946 |  -0.0011054 |  0.0017002 | 
|   1 |   Li | Ymin |  1.0000000 |    0.9988568 |  -0.0011432 |  0.0017647 | 
|   1 |   Li | Ymax |  1.0000000 |    0.9988946 |  -0.0011054 |  0.0017002 | 
|   1 |   Li | Zmin |  1.0000000 |    0.9988568 |  -0.0011432 |  0.0017647 | 
|   1 |   Li | Zmax |  1.0000000 |    0.9988946 |  -0.0011054 |  0.0017002 | 
+..........................................................................+
|   1 |   Li |  AVG |  1.0000000 |    0.9988757 |  -0.0011243 |  0.0017327 | 
+--------------------------------------------------------------------------+
|   2 |  PF6 | Xmin |  1.0000000 |    1.0011463 |   0.0011463 |  0.0017714 | 
|   2 |  PF6 | Xmax |  1.0000000 |    1.0011083 |   0.0011083 |  0.0017064 | 
|   2 |  PF6 | Ymin |  1.0000000 |    1.0011463 |   0.0011463 |  0.0017714 | 
|   2 |  PF6 | Ymax |  1.0000000 |    1.0011083 |   0.0011083 |  0.0017064 | 
|   2 |  PF6 | Zmin |  1.0000000 |    1.0011463 |   0.0011463 |  0.0017714 | 
|   2 |  PF6 | Zmax |  1.0000000 |    1.0011083 |   0.0011083 |  0.0017064 | 
+..........................................................................+
|   2 |  PF6 |  AVG |  1.0000000 |    1.0011273 |   0.0011273 |  0.0017392 | 
+--------------------------------------------------------------------------+
+--------------------------------------------------------------------------+
|      OVERALL      |  1.0000000 |    1.0000015 |   0.0000015 |  0.0017360 | 
+--------------------------------------------------------------------------+
Up spin density kernel initialisation ...... done
Down spin density kernel initialisation ...... done

Writing density kernel to file "li.dkn" ... done

>>> Optimising kernel for current NGWFs:

--------------------------- Ensemble-DFT optimisation --------------------------
Running ScaLAPACK on    1 processor(s).

Reusing previously generated solute cavity.
MG DL_MG: Calling solver with defect correction order = 8
MG DL_MG: Solver finished
MG Fixed charge (1/2 \int rho_f phi dr) energy term:                   0.357529
MG Mobile charge (1/2 \int rho_m phi dr) energy term:                 -0.000101
MG Osmotic pressure (-kT \int dr \sum_i c_i(r)) energy term:          -0.072686
MG Mobile ion acc. corr. (\int dr \sum_i c_i(r) * V_steric(r)):        0.000032
MG Ion atmosph. rearr. (kT \int dr \sum_i c_i(r)*ln(c_i(r)/c^0):       0.000182
MG Chemical potential (-\sum_i \mu_i \int dr c_i(r)) energy term:     -0.000012
MG                                                               --------------
MG Mean-field contribution to grand potential                          0.284945

MG Check from alternate expression:
MG Fixed charge (1/2 \int rho_f phi dr) energy term:                   0.357529
MG Minus mobile charge (-1/2 \int rho_m phi dr) energy term:           0.000101
MG -kTV\Gamma \sum_i c^bulk_i(r) (osmotic pressure) energy term:      -0.072686
MG                                                               --------------
MG Mean-field contribution to grand potential:                         0.284945

IS: MG box volume:     431893.414 a0^3. Accessible fraction: 0.997248. PBC.
IS: Charge neutralisation scheme: COUNTERIONS_AUTO.

+--------------------------- Chemical potential --------------------------+
|   # | Name | Bulk conc. |    mu_ideal   |   mu_excess   |    mu_total   |
|-------------------------------------------------------------------------|
|   1 |   Li |  0.9884357 |  -0.000010982 |  -0.000001093 |  -0.000012075 |
|   2 |  PF6 |  1.0144532 |   0.000013549 |  -0.000001474 |   0.000012075 |
|-------------------------------------------------------------------------|

+----------------- Boltzmann ion concentration and charge -----------------+
|   # | Name | Bulk conc. | Average conc. | Neutr. ratio |    Total charge |
|--------------------------------------------------------------------------|
|   1 |   Li |  0.9884357 |   0.988435726 |     0.444480 |    37.991162039 | 
|   2 |  PF6 |  1.0144532 |   1.014453245 |     0.555520 |   -38.991162098 | 
+--------------------------------------------------------------------------+
                                                    total:    -1.000000059*

+---- Concentration difference from bulk value on simcell faces (mol/L) ---+
|   # | Name | Face | Bulk conc. | Actual conc. |  Difference |  RMS diff. |
|--------------------------------------------------------------------------|
|   1 |   Li | Xmin |  1.0000000 |    0.9988563 |  -0.0011437 |  0.0017649 | 
|   1 |   Li | Xmax |  1.0000000 |    0.9988941 |  -0.0011059 |  0.0017004 | 
|   1 |   Li | Ymin |  1.0000000 |    0.9988563 |  -0.0011437 |  0.0017649 | 
|   1 |   Li | Ymax |  1.0000000 |    0.9988941 |  -0.0011059 |  0.0017004 | 
|   1 |   Li | Zmin |  1.0000000 |    0.9988563 |  -0.0011437 |  0.0017649 | 
|   1 |   Li | Zmax |  1.0000000 |    0.9988941 |  -0.0011059 |  0.0017004 | 
+..........................................................................+
|   1 |   Li |  AVG |  1.0000000 |    0.9988752 |  -0.0011248 |  0.0017330 | 
+--------------------------------------------------------------------------+
|   2 |  PF6 | Xmin |  1.0000000 |    1.0011468 |   0.0011468 |  0.0017716 | 
|   2 |  PF6 | Xmax |  1.0000000 |    1.0011088 |   0.0011088 |  0.0017066 | 
|   2 |  PF6 | Ymin |  1.0000000 |    1.0011468 |   0.0011468 |  0.0017716 | 
|   2 |  PF6 | Ymax |  1.0000000 |    1.0011088 |   0.0011088 |  0.0017066 | 
|   2 |  PF6 | Zmin |  1.0000000 |    1.0011468 |   0.0011468 |  0.0017716 | 
|   2 |  PF6 | Zmax |  1.0000000 |    1.0011088 |   0.0011088 |  0.0017066 | 
+..........................................................................+
|   2 |  PF6 |  AVG |  1.0000000 |    1.0011278 |   0.0011278 |  0.0017394 | 
+--------------------------------------------------------------------------+
+--------------------------------------------------------------------------+
|      OVERALL      |  1.0000000 |    1.0000015 |   0.0000015 |  0.0017362 | 
+--------------------------------------------------------------------------+

Reusing previously generated solute cavity.
MG DL_MG: Calling solver with defect correction order = 8
MG DL_MG: Solver finished
MG Fixed charge (1/2 \int rho_f phi dr) energy term:                   0.357529
MG Mobile charge (1/2 \int rho_m phi dr) energy term:                 -0.000101
MG Osmotic pressure (-kT \int dr \sum_i c_i(r)) energy term:          -0.072686
MG Mobile ion acc. corr. (\int dr \sum_i c_i(r) * V_steric(r)):        0.000032
MG Ion atmosph. rearr. (kT \int dr \sum_i c_i(r)*ln(c_i(r)/c^0):       0.000182
MG Chemical potential (-\sum_i \mu_i \int dr c_i(r)) energy term:     -0.000012
MG                                                               --------------
MG Mean-field contribution to grand potential                          0.284945

MG Check from alternate expression:
MG Fixed charge (1/2 \int rho_f phi dr) energy term:                   0.357529
MG Minus mobile charge (-1/2 \int rho_m phi dr) energy term:           0.000101
MG -kTV\Gamma \sum_i c^bulk_i(r) (osmotic pressure) energy term:      -0.072686
MG                                                               --------------
MG Mean-field contribution to grand potential:                         0.284945

IS: MG box volume:     431893.414 a0^3. Accessible fraction: 0.997248. PBC.
IS: Charge neutralisation scheme: COUNTERIONS_AUTO.

+--------------------------- Chemical potential --------------------------+
|   # | Name | Bulk conc. |    mu_ideal   |   mu_excess   |    mu_total   |
|-------------------------------------------------------------------------|
|   1 |   Li |  0.9884357 |  -0.000010982 |  -0.000001093 |  -0.000012075 |
|   2 |  PF6 |  1.0144532 |   0.000013549 |  -0.000001474 |   0.000012075 |
|-------------------------------------------------------------------------|

+----------------- Boltzmann ion concentration and charge -----------------+
|   # | Name | Bulk conc. | Average conc. | Neutr. ratio |    Total charge |
|--------------------------------------------------------------------------|
|   1 |   Li |  0.9884357 |   0.988435726 |     0.444480 |    37.991162039 | 
|   2 |  PF6 |  1.0144532 |   1.014453245 |     0.555520 |   -38.991162098 | 
+--------------------------------------------------------------------------+
                                                    total:    -1.000000059*

+---- Concentration difference from bulk value on simcell faces (mol/L) ---+
|   # | Name | Face | Bulk conc. | Actual conc. |  Difference |  RMS diff. |
|--------------------------------------------------------------------------|
|   1 |   Li | Xmin |  1.0000000 |    0.9988563 |  -0.0011437 |  0.0017649 | 
|   1 |   Li | Xmax |  1.0000000 |    0.9988941 |  -0.0011059 |  0.0017004 | 
|   1 |   Li | Ymin |  1.0000000 |    0.9988563 |  -0.0011437 |  0.0017649 | 
|   1 |   Li | Ymax |  1.0000000 |    0.9988941 |  -0.0011059 |  0.0017004 | 
|   1 |   Li | Zmin |  1.0000000 |    0.9988563 |  -0.0011437 |  0.0017649 | 
|   1 |   Li | Zmax |  1.0000000 |    0.9988941 |  -0.0011059 |  0.0017004 | 
+..........................................................................+
|   1 |   Li |  AVG |  1.0000000 |    0.9988752 |  -0.0011248 |  0.0017330 | 
+--------------------------------------------------------------------------+
|   2 |  PF6 | Xmin |  1.0000000 |    1.0011468 |   0.0011468 |  0.0017716 | 
|   2 |  PF6 | Xmax |  1.0000000 |    1.0011088 |   0.0011088 |  0.0017066 | 
|   2 |  PF6 | Ymin |  1.0000000 |    1.0011468 |   0.0011468 |  0.0017716 | 
|   2 |  PF6 | Ymax |  1.0000000 |    1.0011088 |   0.0011088 |  0.0017066 | 
|   2 |  PF6 | Zmin |  1.0000000 |    1.0011468 |   0.0011468 |  0.0017716 | 
|   2 |  PF6 | Zmax |  1.0000000 |    1.0011088 |   0.0011088 |  0.0017066 | 
+..........................................................................+
|   2 |  PF6 |  AVG |  1.0000000 |    1.0011278 |   0.0011278 |  0.0017394 | 
+--------------------------------------------------------------------------+
+--------------------------------------------------------------------------+
|      OVERALL      |  1.0000000 |    1.0000015 |   0.0000015 |  0.0017362 | 
+--------------------------------------------------------------------------+

--------------------------------------------------------------------------------
  Iter                              Commutator    Free_energy(A=E-TS)     DeltaA
#    0                          0.075953710761      -7.11320011166676  -7.11E+00

Step                       =       0.381966011250
Energy (E)                 =      -7.113200111667
Entropy (-TS)              =       0.000000000000
Free energy (A=E-TS)       =      -7.113200111667
Est. 0K Energy 0.5*(E+A)   =      -7.113200111667
Residual Non-orthogonality =      -0.000000000000
Residual N_electrons       =       0.000000000000

Spin          Integrated_Ne            Fermi_level     Delta_Fermi_level
   1         1.000000000000        -1.393393392741             -1.39E+00
   2         1.000000000000        -1.393393392741             -1.39E+00

                           Spin 1           |                 Spin 2           |
     Orb |    H-eigenvalues     Occupancies |    H-eigenvalues     Occupancies |
       1 |    -2.6199522102    1.0000000000 |    -2.6199522102    1.0000000000 | 
                 - Gap at zero temperature - |     - Gap at zero temperature -
                  Finite temp. Fermi level   |      Finite temp. Fermi level  
       2 |    -0.1668345753    0.0000000000 |    -0.1668345753    0.0000000000 | 
       3 |    -0.0778855253    0.0000000000 |    -0.0778855253    0.0000000000 | 
       4 |    -0.0778854101    0.0000000000 |    -0.0778854101    0.0000000000 | 
       5 |    -0.0778854040    0.0000000000 |    -0.0778854040    0.0000000000 | 

                            |  Abs_value |  Threshold | Converged
     Delta_Free_energy/atom |   7.11E+00 |   1.00E-06 |        No
     Delta_Energy/atom      |   7.11E+00 |   1.00E-04 |        No
     Delta_Entropy/atom     |     n.a.   |   1.00E-10 |      n.a.
     Commutator             |   7.60E-02 |   1.00E-05 |        No
     Delta_Fermi_level      |   1.39E+00 |   1.00E-10 |        No

  Line search of the free energy minimum:
  Step_type        Step             Free_energy   Predicted_free_energy
.   Initial    0.000000       -7.11320011166676

Reusing previously generated solute cavity.
MG DL_MG: Calling solver with defect correction order = 8
MG DL_MG: Solver finished
MG Fixed charge (1/2 \int rho_f phi dr) energy term:                   0.356565
MG Mobile charge (1/2 \int rho_m phi dr) energy term:                 -0.000101
MG Osmotic pressure (-kT \int dr \sum_i c_i(r)) energy term:          -0.072686
MG Mobile ion acc. corr. (\int dr \sum_i c_i(r) * V_steric(r)):        0.000032
MG Ion atmosph. rearr. (kT \int dr \sum_i c_i(r)*ln(c_i(r)/c^0):       0.000182
MG Chemical potential (-\sum_i \mu_i \int dr c_i(r)) energy term:     -0.000012
MG                                                               --------------
MG Mean-field contribution to grand potential                          0.283981

MG Check from alternate expression:
MG Fixed charge (1/2 \int rho_f phi dr) energy term:                   0.356565
MG Minus mobile charge (-1/2 \int rho_m phi dr) energy term:           0.000101
MG -kTV\Gamma \sum_i c^bulk_i(r) (osmotic pressure) energy term:      -0.072686
MG                                                               --------------
MG Mean-field contribution to grand potential:                         0.283981

IS: MG box volume:     431893.414 a0^3. Accessible fraction: 0.997248. PBC.
IS: Charge neutralisation scheme: COUNTERIONS_AUTO.

+--------------------------- Chemical potential --------------------------+
|   # | Name | Bulk conc. |    mu_ideal   |   mu_excess   |    mu_total   |
|-------------------------------------------------------------------------|
|   1 |   Li |  0.9884357 |  -0.000010982 |  -0.000001093 |  -0.000012075 |
|   2 |  PF6 |  1.0144532 |   0.000013549 |  -0.000001474 |   0.000012075 |
|-------------------------------------------------------------------------|

+----------------- Boltzmann ion concentration and charge -----------------+
|   # | Name | Bulk conc. | Average conc. | Neutr. ratio |    Total charge |
|--------------------------------------------------------------------------|
|   1 |   Li |  0.9884357 |   0.988435726 |     0.444480 |    37.991162030 | 
|   2 |  PF6 |  1.0144532 |   1.014453245 |     0.555520 |   -38.991162090 | 
+--------------------------------------------------------------------------+
                                                    total:    -1.000000059*

+---- Concentration difference from bulk value on simcell faces (mol/L) ---+
|   # | Name | Face | Bulk conc. | Actual conc. |  Difference |  RMS diff. |
|--------------------------------------------------------------------------|
|   1 |   Li | Xmin |  1.0000000 |    0.9988563 |  -0.0011437 |  0.0017649 | 
|   1 |   Li | Xmax |  1.0000000 |    0.9988941 |  -0.0011059 |  0.0017004 | 
|   1 |   Li | Ymin |  1.0000000 |    0.9988563 |  -0.0011437 |  0.0017649 | 
|   1 |   Li | Ymax |  1.0000000 |    0.9988941 |  -0.0011059 |  0.0017004 | 
|   1 |   Li | Zmin |  1.0000000 |    0.9988563 |  -0.0011437 |  0.0017649 | 
|   1 |   Li | Zmax |  1.0000000 |    0.9988941 |  -0.0011059 |  0.0017004 | 
+..........................................................................+
|   1 |   Li |  AVG |  1.0000000 |    0.9988752 |  -0.0011248 |  0.0017330 | 
+--------------------------------------------------------------------------+
|   2 |  PF6 | Xmin |  1.0000000 |    1.0011468 |   0.0011468 |  0.0017716 | 
|   2 |  PF6 | Xmax |  1.0000000 |    1.0011088 |   0.0011088 |  0.0017066 | 
|   2 |  PF6 | Ymin |  1.0000000 |    1.0011468 |   0.0011468 |  0.0017716 | 
|   2 |  PF6 | Ymax |  1.0000000 |    1.0011088 |   0.0011088 |  0.0017066 | 
|   2 |  PF6 | Zmin |  1.0000000 |    1.0011468 |   0.0011468 |  0.0017716 | 
|   2 |  PF6 | Zmax |  1.0000000 |    1.0011088 |   0.0011088 |  0.0017066 | 
+..........................................................................+
|   2 |  PF6 |  AVG |  1.0000000 |    1.0011278 |   0.0011278 |  0.0017394 | 
+--------------------------------------------------------------------------+
+--------------------------------------------------------------------------+
|      OVERALL      |  1.0000000 |    1.0000015 |   0.0000015 |  0.0017362 | 
+--------------------------------------------------------------------------+
.    Trial1    0.381966       -7.11481337446929

Reusing previously generated solute cavity.
MG DL_MG: Calling solver with defect correction order = 8
MG DL_MG: Solver finished
MG Fixed charge (1/2 \int rho_f phi dr) energy term:                   0.355937
MG Mobile charge (1/2 \int rho_m phi dr) energy term:                 -0.000101
MG Osmotic pressure (-kT \int dr \sum_i c_i(r)) energy term:          -0.072686
MG Mobile ion acc. corr. (\int dr \sum_i c_i(r) * V_steric(r)):        0.000032
MG Ion atmosph. rearr. (kT \int dr \sum_i c_i(r)*ln(c_i(r)/c^0):       0.000182
MG Chemical potential (-\sum_i \mu_i \int dr c_i(r)) energy term:     -0.000012
MG                                                               --------------
MG Mean-field contribution to grand potential                          0.283353

MG Check from alternate expression:
MG Fixed charge (1/2 \int rho_f phi dr) energy term:                   0.355937
MG Minus mobile charge (-1/2 \int rho_m phi dr) energy term:           0.000101
MG -kTV\Gamma \sum_i c^bulk_i(r) (osmotic pressure) energy term:      -0.072686
MG                                                               --------------
MG Mean-field contribution to grand potential:                         0.283353

IS: MG box volume:     431893.414 a0^3. Accessible fraction: 0.997248. PBC.
IS: Charge neutralisation scheme: COUNTERIONS_AUTO.

+--------------------------- Chemical potential --------------------------+
|   # | Name | Bulk conc. |    mu_ideal   |   mu_excess   |    mu_total   |
|-------------------------------------------------------------------------|
|   1 |   Li |  0.9884357 |  -0.000010982 |  -0.000001093 |  -0.000012075 |
|   2 |  PF6 |  1.0144532 |   0.000013549 |  -0.000001474 |   0.000012075 |
|-------------------------------------------------------------------------|

+----------------- Boltzmann ion concentration and charge -----------------+
|   # | Name | Bulk conc. | Average conc. | Neutr. ratio |    Total charge |
|--------------------------------------------------------------------------|
|   1 |   Li |  0.9884357 |   0.988435726 |     0.444480 |    37.991162026 | 
|   2 |  PF6 |  1.0144532 |   1.014453245 |     0.555520 |   -38.991162085 | 
+--------------------------------------------------------------------------+
                                                    total:    -1.000000059*

+---- Concentration difference from bulk value on simcell faces (mol/L) ---+
|   # | Name | Face | Bulk conc. | Actual conc. |  Difference |  RMS diff. |
|--------------------------------------------------------------------------|
|   1 |   Li | Xmin |  1.0000000 |    0.9988563 |  -0.0011437 |  0.0017649 | 
|   1 |   Li | Xmax |  1.0000000 |    0.9988941 |  -0.0011059 |  0.0017004 | 
|   1 |   Li | Ymin |  1.0000000 |    0.9988563 |  -0.0011437 |  0.0017649 | 
|   1 |   Li | Ymax |  1.0000000 |    0.9988941 |  -0.0011059 |  0.0017004 | 
|   1 |   Li | Zmin |  1.0000000 |    0.9988563 |  -0.0011437 |  0.0017649 | 
|   1 |   Li | Zmax |  1.0000000 |    0.9988941 |  -0.0011059 |  0.0017004 | 
+..........................................................................+
|   1 |   Li |  AVG |  1.0000000 |    0.9988752 |  -0.0011248 |  0.0017330 | 
+--------------------------------------------------------------------------+
|   2 |  PF6 | Xmin |  1.0000000 |    1.0011468 |   0.0011468 |  0.0017716 | 
|   2 |  PF6 | Xmax |  1.0000000 |    1.0011088 |   0.0011088 |  0.0017066 | 
|   2 |  PF6 | Ymin |  1.0000000 |    1.0011468 |   0.0011468 |  0.0017716 | 
|   2 |  PF6 | Ymax |  1.0000000 |    1.0011088 |   0.0011088 |  0.0017066 | 
|   2 |  PF6 | Zmin |  1.0000000 |    1.0011468 |   0.0011468 |  0.0017716 | 
|   2 |  PF6 | Zmax |  1.0000000 |    1.0011088 |   0.0011088 |  0.0017066 | 
+..........................................................................+
|   2 |  PF6 |  AVG |  1.0000000 |    1.0011278 |   0.0011278 |  0.0017394 | 
+--------------------------------------------------------------------------+
+--------------------------------------------------------------------------+
|      OVERALL      |  1.0000000 |    1.0000015 |   0.0000015 |  0.0017362 | 
+--------------------------------------------------------------------------+
.    Trial2    0.618034       -7.11555445695624

Reusing previously generated solute cavity.
MG DL_MG: Calling solver with defect correction order = 8
MG DL_MG: Solver finished
MG Fixed charge (1/2 \int rho_f phi dr) energy term:                   0.355540
MG Mobile charge (1/2 \int rho_m phi dr) energy term:                 -0.000101
MG Osmotic pressure (-kT \int dr \sum_i c_i(r)) energy term:          -0.072686
MG Mobile ion acc. corr. (\int dr \sum_i c_i(r) * V_steric(r)):        0.000032
MG Ion atmosph. rearr. (kT \int dr \sum_i c_i(r)*ln(c_i(r)/c^0):       0.000182
MG Chemical potential (-\sum_i \mu_i \int dr c_i(r)) energy term:     -0.000012
MG                                                               --------------
MG Mean-field contribution to grand potential                          0.282955

MG Check from alternate expression:
MG Fixed charge (1/2 \int rho_f phi dr) energy term:                   0.355540
MG Minus mobile charge (-1/2 \int rho_m phi dr) energy term:           0.000101
MG -kTV\Gamma \sum_i c^bulk_i(r) (osmotic pressure) energy term:      -0.072686
MG                                                               --------------
MG Mean-field contribution to grand potential:                         0.282955

IS: MG box volume:     431893.414 a0^3. Accessible fraction: 0.997248. PBC.
IS: Charge neutralisation scheme: COUNTERIONS_AUTO.

+--------------------------- Chemical potential --------------------------+
|   # | Name | Bulk conc. |    mu_ideal   |   mu_excess   |    mu_total   |
|-------------------------------------------------------------------------|
|   1 |   Li |  0.9884357 |  -0.000010982 |  -0.000001093 |  -0.000012075 |
|   2 |  PF6 |  1.0144532 |   0.000013549 |  -0.000001474 |   0.000012075 |
|-------------------------------------------------------------------------|

+----------------- Boltzmann ion concentration and charge -----------------+
|   # | Name | Bulk conc. | Average conc. | Neutr. ratio |    Total charge |
|--------------------------------------------------------------------------|
|   1 |   Li |  0.9884357 |   0.988435726 |     0.444480 |    37.991162023 | 
|   2 |  PF6 |  1.0144532 |   1.014453245 |     0.555520 |   -38.991162082 | 
+--------------------------------------------------------------------------+
                                                    total:    -1.000000059*

+---- Concentration difference from bulk value on simcell faces (mol/L) ---+
|   # | Name | Face | Bulk conc. | Actual conc. |  Difference |  RMS diff. |
|--------------------------------------------------------------------------|
|   1 |   Li | Xmin |  1.0000000 |    0.9988563 |  -0.0011437 |  0.0017649 | 
|   1 |   Li | Xmax |  1.0000000 |    0.9988941 |  -0.0011059 |  0.0017004 | 
|   1 |   Li | Ymin |  1.0000000 |    0.9988563 |  -0.0011437 |  0.0017649 | 
|   1 |   Li | Ymax |  1.0000000 |    0.9988941 |  -0.0011059 |  0.0017004 | 
|   1 |   Li | Zmin |  1.0000000 |    0.9988563 |  -0.0011437 |  0.0017649 | 
|   1 |   Li | Zmax |  1.0000000 |    0.9988941 |  -0.0011059 |  0.0017004 | 
+..........................................................................+
|   1 |   Li |  AVG |  1.0000000 |    0.9988752 |  -0.0011248 |  0.0017330 | 
+--------------------------------------------------------------------------+
|   2 |  PF6 | Xmin |  1.0000000 |    1.0011468 |   0.0011468 |  0.0017716 | 
|   2 |  PF6 | Xmax |  1.0000000 |    1.0011088 |   0.0011088 |  0.0017066 | 
|   2 |  PF6 | Ymin |  1.0000000 |    1.0011468 |   0.0011468 |  0.0017716 | 
|   2 |  PF6 | Ymax |  1.0000000 |    1.0011088 |   0.0011088 |  0.0017066 | 
|   2 |  PF6 | Zmin |  1.0000000 |    1.0011468 |   0.0011468 |  0.0017716 | 
|   2 |  PF6 | Zmax |  1.0000000 |    1.0011088 |   0.0011088 |  0.0017066 | 
+..........................................................................+
|   2 |  PF6 |  AVG |  1.0000000 |    1.0011278 |   0.0011278 |  0.0017394 | 
+--------------------------------------------------------------------------+
+--------------------------------------------------------------------------+
|      OVERALL      |  1.0000000 |    1.0000015 |   0.0000015 |  0.0017362 | 
+--------------------------------------------------------------------------+
.    Trial3    0.763932       -7.11587051342320

Reusing previously generated solute cavity.
MG DL_MG: Calling solver with defect correction order = 8
MG DL_MG: Solver finished
MG Fixed charge (1/2 \int rho_f phi dr) energy term:                   0.355291
MG Mobile charge (1/2 \int rho_m phi dr) energy term:                 -0.000101
MG Osmotic pressure (-kT \int dr \sum_i c_i(r)) energy term:          -0.072686
MG Mobile ion acc. corr. (\int dr \sum_i c_i(r) * V_steric(r)):        0.000032
MG Ion atmosph. rearr. (kT \int dr \sum_i c_i(r)*ln(c_i(r)/c^0):       0.000182
MG Chemical potential (-\sum_i \mu_i \int dr c_i(r)) energy term:     -0.000012
MG                                                               --------------
MG Mean-field contribution to grand potential                          0.282706

MG Check from alternate expression:
MG Fixed charge (1/2 \int rho_f phi dr) energy term:                   0.355291
MG Minus mobile charge (-1/2 \int rho_m phi dr) energy term:           0.000101
MG -kTV\Gamma \sum_i c^bulk_i(r) (osmotic pressure) energy term:      -0.072686
MG                                                               --------------
MG Mean-field contribution to grand potential:                         0.282706

IS: MG box volume:     431893.414 a0^3. Accessible fraction: 0.997248. PBC.
IS: Charge neutralisation scheme: COUNTERIONS_AUTO.

+--------------------------- Chemical potential --------------------------+
|   # | Name | Bulk conc. |    mu_ideal   |   mu_excess   |    mu_total   |
|-------------------------------------------------------------------------|
|   1 |   Li |  0.9884357 |  -0.000010982 |  -0.000001093 |  -0.000012075 |
|   2 |  PF6 |  1.0144532 |   0.000013549 |  -0.000001474 |   0.000012075 |
|-------------------------------------------------------------------------|

+----------------- Boltzmann ion concentration and charge -----------------+
|   # | Name | Bulk conc. | Average conc. | Neutr. ratio |    Total charge |
|--------------------------------------------------------------------------|
|   1 |   Li |  0.9884357 |   0.988435726 |     0.444480 |    37.991162022 | 
|   2 |  PF6 |  1.0144532 |   1.014453245 |     0.555520 |   -38.991162081 | 
+--------------------------------------------------------------------------+
                                                    total:    -1.000000059*

+---- Concentration difference from bulk value on simcell faces (mol/L) ---+
|   # | Name | Face | Bulk conc. | Actual conc. |  Difference |  RMS diff. |
|--------------------------------------------------------------------------|
|   1 |   Li | Xmin |  1.0000000 |    0.9988563 |  -0.0011437 |  0.0017649 | 
|   1 |   Li | Xmax |  1.0000000 |    0.9988941 |  -0.0011059 |  0.0017004 | 
|   1 |   Li | Ymin |  1.0000000 |    0.9988563 |  -0.0011437 |  0.0017649 | 
|   1 |   Li | Ymax |  1.0000000 |    0.9988941 |  -0.0011059 |  0.0017004 | 
|   1 |   Li | Zmin |  1.0000000 |    0.9988563 |  -0.0011437 |  0.0017649 | 
|   1 |   Li | Zmax |  1.0000000 |    0.9988941 |  -0.0011059 |  0.0017004 | 
+..........................................................................+
|   1 |   Li |  AVG |  1.0000000 |    0.9988752 |  -0.0011248 |  0.0017330 | 
+--------------------------------------------------------------------------+
|   2 |  PF6 | Xmin |  1.0000000 |    1.0011468 |   0.0011468 |  0.0017716 | 
|   2 |  PF6 | Xmax |  1.0000000 |    1.0011088 |   0.0011088 |  0.0017066 | 
|   2 |  PF6 | Ymin |  1.0000000 |    1.0011468 |   0.0011468 |  0.0017716 | 
|   2 |  PF6 | Ymax |  1.0000000 |    1.0011088 |   0.0011088 |  0.0017066 | 
|   2 |  PF6 | Zmin |  1.0000000 |    1.0011468 |   0.0011468 |  0.0017716 | 
|   2 |  PF6 | Zmax |  1.0000000 |    1.0011088 |   0.0011088 |  0.0017066 | 
+..........................................................................+
|   2 |  PF6 |  AVG |  1.0000000 |    1.0011278 |   0.0011278 |  0.0017394 | 
+--------------------------------------------------------------------------+
+--------------------------------------------------------------------------+
|      OVERALL      |  1.0000000 |    1.0000015 |   0.0000015 |  0.0017362 | 
+--------------------------------------------------------------------------+
.    Trial4    0.854102       -7.11599788741137

Reusing previously generated solute cavity.
MG DL_MG: Calling solver with defect correction order = 8
MG DL_MG: Solver finished
MG Fixed charge (1/2 \int rho_f phi dr) energy term:                   0.357520
MG Mobile charge (1/2 \int rho_m phi dr) energy term:                 -0.000101
MG Osmotic pressure (-kT \int dr \sum_i c_i(r)) energy term:          -0.072686
MG Mobile ion acc. corr. (\int dr \sum_i c_i(r) * V_steric(r)):        0.000032
MG Ion atmosph. rearr. (kT \int dr \sum_i c_i(r)*ln(c_i(r)/c^0):       0.000182
MG Chemical potential (-\sum_i \mu_i \int dr c_i(r)) energy term:     -0.000012
MG                                                               --------------
MG Mean-field contribution to grand potential                          0.284936

MG Check from alternate expression:
MG Fixed charge (1/2 \int rho_f phi dr) energy term:                   0.357520
MG Minus mobile charge (-1/2 \int rho_m phi dr) energy term:           0.000101
MG -kTV\Gamma \sum_i c^bulk_i(r) (osmotic pressure) energy term:      -0.072686
MG                                                               --------------
MG Mean-field contribution to grand potential:                         0.284936

IS: MG box volume:     431893.414 a0^3. Accessible fraction: 0.997248. PBC.
IS: Charge neutralisation scheme: COUNTERIONS_AUTO.

+--------------------------- Chemical potential --------------------------+
|   # | Name | Bulk conc. |    mu_ideal   |   mu_excess   |    mu_total   |
|-------------------------------------------------------------------------|
|   1 |   Li |  0.9884357 |  -0.000010982 |  -0.000001093 |  -0.000012075 |
|   2 |  PF6 |  1.0144532 |   0.000013549 |  -0.000001474 |   0.000012075 |
|-------------------------------------------------------------------------|

+----------------- Boltzmann ion concentration and charge -----------------+
|   # | Name | Bulk conc. | Average conc. | Neutr. ratio |    Total charge |
|--------------------------------------------------------------------------|
|   1 |   Li |  0.9884357 |   0.988435726 |     0.444480 |    37.991162039 | 
|   2 |  PF6 |  1.0144532 |   1.014453245 |     0.555520 |   -38.991162098 | 
+--------------------------------------------------------------------------+
                                                    total:    -1.000000059*

+---- Concentration difference from bulk value on simcell faces (mol/L) ---+
|   # | Name | Face | Bulk conc. | Actual conc. |  Difference |  RMS diff. |
|--------------------------------------------------------------------------|
|   1 |   Li | Xmin |  1.0000000 |    0.9988563 |  -0.0011437 |  0.0017649 | 
|   1 |   Li | Xmax |  1.0000000 |    0.9988941 |  -0.0011059 |  0.0017004 | 
|   1 |   Li | Ymin |  1.0000000 |    0.9988563 |  -0.0011437 |  0.0017649 | 
|   1 |   Li | Ymax |  1.0000000 |    0.9988941 |  -0.0011059 |  0.0017004 | 
|   1 |   Li | Zmin |  1.0000000 |    0.9988563 |  -0.0011437 |  0.0017649 | 
|   1 |   Li | Zmax |  1.0000000 |    0.9988941 |  -0.0011059 |  0.0017004 | 
+..........................................................................+
|   1 |   Li |  AVG |  1.0000000 |    0.9988752 |  -0.0011248 |  0.0017330 | 
+--------------------------------------------------------------------------+
|   2 |  PF6 | Xmin |  1.0000000 |    1.0011468 |   0.0011468 |  0.0017716 | 
|   2 |  PF6 | Xmax |  1.0000000 |    1.0011088 |   0.0011088 |  0.0017066 | 
|   2 |  PF6 | Ymin |  1.0000000 |    1.0011468 |   0.0011468 |  0.0017716 | 
|   2 |  PF6 | Ymax |  1.0000000 |    1.0011088 |   0.0011088 |  0.0017066 | 
|   2 |  PF6 | Zmin |  1.0000000 |    1.0011468 |   0.0011468 |  0.0017716 | 
|   2 |  PF6 | Zmax |  1.0000000 |    1.0011088 |   0.0011088 |  0.0017066 | 
+..........................................................................+
|   2 |  PF6 |  AVG |  1.0000000 |    1.0011278 |   0.0011278 |  0.0017394 | 
+--------------------------------------------------------------------------+
+--------------------------------------------------------------------------+
|      OVERALL      |  1.0000000 |    1.0000015 |   0.0000015 |  0.0017362 | 
+--------------------------------------------------------------------------+
.    Trial5    0.003820       -7.11321806224228

Reusing previously generated solute cavity.
MG DL_MG: Calling solver with defect correction order = 8
MG DL_MG: Solver finished
MG Fixed charge (1/2 \int rho_f phi dr) energy term:                   0.355291
MG Mobile charge (1/2 \int rho_m phi dr) energy term:                 -0.000101
MG Osmotic pressure (-kT \int dr \sum_i c_i(r)) energy term:          -0.072686
MG Mobile ion acc. corr. (\int dr \sum_i c_i(r) * V_steric(r)):        0.000032
MG Ion atmosph. rearr. (kT \int dr \sum_i c_i(r)*ln(c_i(r)/c^0):       0.000182
MG Chemical potential (-\sum_i \mu_i \int dr c_i(r)) energy term:     -0.000012
MG                                                               --------------
MG Mean-field contribution to grand potential                          0.282706

MG Check from alternate expression:
MG Fixed charge (1/2 \int rho_f phi dr) energy term:                   0.355291
MG Minus mobile charge (-1/2 \int rho_m phi dr) energy term:           0.000101
MG -kTV\Gamma \sum_i c^bulk_i(r) (osmotic pressure) energy term:      -0.072686
MG                                                               --------------
MG Mean-field contribution to grand potential:                         0.282706

IS: MG box volume:     431893.414 a0^3. Accessible fraction: 0.997248. PBC.
IS: Charge neutralisation scheme: COUNTERIONS_AUTO.

+--------------------------- Chemical potential --------------------------+
|   # | Name | Bulk conc. |    mu_ideal   |   mu_excess   |    mu_total   |
|-------------------------------------------------------------------------|
|   1 |   Li |  0.9884357 |  -0.000010982 |  -0.000001093 |  -0.000012075 |
|   2 |  PF6 |  1.0144532 |   0.000013549 |  -0.000001474 |   0.000012075 |
|-------------------------------------------------------------------------|

+----------------- Boltzmann ion concentration and charge -----------------+
|   # | Name | Bulk conc. | Average conc. | Neutr. ratio |    Total charge |
|--------------------------------------------------------------------------|
|   1 |   Li |  0.9884357 |   0.988435726 |     0.444480 |    37.991162022 | 
|   2 |  PF6 |  1.0144532 |   1.014453245 |     0.555520 |   -38.991162081 | 
+--------------------------------------------------------------------------+
                                                    total:    -1.000000059*

+---- Concentration difference from bulk value on simcell faces (mol/L) ---+
|   # | Name | Face | Bulk conc. | Actual conc. |  Difference |  RMS diff. |
|--------------------------------------------------------------------------|
|   1 |   Li | Xmin |  1.0000000 |    0.9988563 |  -0.0011437 |  0.0017649 | 
|   1 |   Li | Xmax |  1.0000000 |    0.9988941 |  -0.0011059 |  0.0017004 | 
|   1 |   Li | Ymin |  1.0000000 |    0.9988563 |  -0.0011437 |  0.0017649 | 
|   1 |   Li | Ymax |  1.0000000 |    0.9988941 |  -0.0011059 |  0.0017004 | 
|   1 |   Li | Zmin |  1.0000000 |    0.9988563 |  -0.0011437 |  0.0017649 | 
|   1 |   Li | Zmax |  1.0000000 |    0.9988941 |  -0.0011059 |  0.0017004 | 
+..........................................................................+
|   1 |   Li |  AVG |  1.0000000 |    0.9988752 |  -0.0011248 |  0.0017330 | 
+--------------------------------------------------------------------------+
|   2 |  PF6 | Xmin |  1.0000000 |    1.0011468 |   0.0011468 |  0.0017716 | 
|   2 |  PF6 | Xmax |  1.0000000 |    1.0011088 |   0.0011088 |  0.0017066 | 
|   2 |  PF6 | Ymin |  1.0000000 |    1.0011468 |   0.0011468 |  0.0017716 | 
|   2 |  PF6 | Ymax |  1.0000000 |    1.0011088 |   0.0011088 |  0.0017066 | 
|   2 |  PF6 | Zmin |  1.0000000 |    1.0011468 |   0.0011468 |  0.0017716 | 
|   2 |  PF6 | Zmax |  1.0000000 |    1.0011088 |   0.0011088 |  0.0017066 | 
+..........................................................................+
|   2 |  PF6 |  AVG |  1.0000000 |    1.0011278 |   0.0011278 |  0.0017394 | 
+--------------------------------------------------------------------------+
+--------------------------------------------------------------------------+
|      OVERALL      |  1.0000000 |    1.0000015 |   0.0000015 |  0.0017362 | 
+--------------------------------------------------------------------------+
.  NoMinFnd    0.854102       -7.11599788741137

--------------------------------------------------------------------------------
  Iter                              Commutator    Free_energy(A=E-TS)     DeltaA
#    1                          0.012306942544      -7.11599788741137  -2.80E-03

Step                       =       0.854101966250
Energy (E)                 =      -7.115997887411
Entropy (-TS)              =       0.000000000000
Free energy (A=E-TS)       =      -7.115997887411
Est. 0K Energy 0.5*(E+A)   =      -7.115997887411
Residual Non-orthogonality =      -0.000000000000
Residual N_electrons       =       0.000000000000

Spin          Integrated_Ne            Fermi_level     Delta_Fermi_level
   1         1.000000000000        -1.057745950822              3.36E-01
   2         1.000000000000        -1.057745950822              3.36E-01

                           Spin 1           |                 Spin 2           |
     Orb |    H-eigenvalues     Occupancies |    H-eigenvalues     Occupancies |
       1 |    -2.0829971266    1.0000000000 |    -2.0829971266    1.0000000000 | 
                 - Gap at zero temperature - |     - Gap at zero temperature -
                  Finite temp. Fermi level   |      Finite temp. Fermi level  
       2 |    -0.0324947750    0.0000000000 |    -0.0324947750    0.0000000000 | 
       3 |     0.0512704689    0.0000000000 |     0.0512704689    0.0000000000 | 
       4 |     0.0512705587    0.0000000000 |     0.0512705587    0.0000000000 | 
       5 |     0.0512706324    0.0000000000 |     0.0512706324    0.0000000000 | 

                            |  Abs_value |  Threshold | Converged
     Delta_Free_energy/atom |   2.80E-03 |   1.00E-06 |        No
     Delta_Energy/atom      |   2.80E-03 |   1.00E-04 |        No
     Delta_Entropy/atom     |   0.00E+00 |   1.00E-04 |       Yes
     Commutator             |   1.23E-02 |   1.00E-05 |        No
     Delta_Fermi_level      |   3.36E-01 |   1.00E-10 |        No

  Line search of the free energy minimum:
  Step_type        Step             Free_energy   Predicted_free_energy
.   Initial    0.000000       -7.11599788741137

Reusing previously generated solute cavity.
MG DL_MG: Calling solver with defect correction order = 8
MG DL_MG: Solver finished
MG Fixed charge (1/2 \int rho_f phi dr) energy term:                   0.354970
MG Mobile charge (1/2 \int rho_m phi dr) energy term:                 -0.000101
MG Osmotic pressure (-kT \int dr \sum_i c_i(r)) energy term:          -0.072686
MG Mobile ion acc. corr. (\int dr \sum_i c_i(r) * V_steric(r)):        0.000032
MG Ion atmosph. rearr. (kT \int dr \sum_i c_i(r)*ln(c_i(r)/c^0):       0.000182
MG Chemical potential (-\sum_i \mu_i \int dr c_i(r)) energy term:     -0.000012
MG                                                               --------------
MG Mean-field contribution to grand potential                          0.282385

MG Check from alternate expression:
MG Fixed charge (1/2 \int rho_f phi dr) energy term:                   0.354970
MG Minus mobile charge (-1/2 \int rho_m phi dr) energy term:           0.000101
MG -kTV\Gamma \sum_i c^bulk_i(r) (osmotic pressure) energy term:      -0.072686
MG                                                               --------------
MG Mean-field contribution to grand potential:                         0.282385

IS: MG box volume:     431893.414 a0^3. Accessible fraction: 0.997248. PBC.
IS: Charge neutralisation scheme: COUNTERIONS_AUTO.

+--------------------------- Chemical potential --------------------------+
|   # | Name | Bulk conc. |    mu_ideal   |   mu_excess   |    mu_total   |
|-------------------------------------------------------------------------|
|   1 |   Li |  0.9884357 |  -0.000010982 |  -0.000001093 |  -0.000012075 |
|   2 |  PF6 |  1.0144532 |   0.000013549 |  -0.000001474 |   0.000012075 |
|-------------------------------------------------------------------------|

+----------------- Boltzmann ion concentration and charge -----------------+
|   # | Name | Bulk conc. | Average conc. | Neutr. ratio |    Total charge |
|--------------------------------------------------------------------------|
|   1 |   Li |  0.9884357 |   0.988435726 |     0.444480 |    37.991162020 | 
|   2 |  PF6 |  1.0144532 |   1.014453245 |     0.555520 |   -38.991162079 | 
+--------------------------------------------------------------------------+
                                                    total:    -1.000000059*

+---- Concentration difference from bulk value on simcell faces (mol/L) ---+
|   # | Name | Face | Bulk conc. | Actual conc. |  Difference |  RMS diff. |
|--------------------------------------------------------------------------|
|   1 |   Li | Xmin |  1.0000000 |    0.9988563 |  -0.0011437 |  0.0017649 | 
|   1 |   Li | Xmax |  1.0000000 |    0.9988941 |  -0.0011059 |  0.0017004 | 
|   1 |   Li | Ymin |  1.0000000 |    0.9988563 |  -0.0011437 |  0.0017649 | 
|   1 |   Li | Ymax |  1.0000000 |    0.9988941 |  -0.0011059 |  0.0017004 | 
|   1 |   Li | Zmin |  1.0000000 |    0.9988563 |  -0.0011437 |  0.0017649 | 
|   1 |   Li | Zmax |  1.0000000 |    0.9988941 |  -0.0011059 |  0.0017004 | 
+..........................................................................+
|   1 |   Li |  AVG |  1.0000000 |    0.9988752 |  -0.0011248 |  0.0017330 | 
+--------------------------------------------------------------------------+
|   2 |  PF6 | Xmin |  1.0000000 |    1.0011468 |   0.0011468 |  0.0017716 | 
|   2 |  PF6 | Xmax |  1.0000000 |    1.0011088 |   0.0011088 |  0.0017066 | 
|   2 |  PF6 | Ymin |  1.0000000 |    1.0011468 |   0.0011468 |  0.0017716 | 
|   2 |  PF6 | Ymax |  1.0000000 |    1.0011088 |   0.0011088 |  0.0017066 | 
|   2 |  PF6 | Zmin |  1.0000000 |    1.0011468 |   0.0011468 |  0.0017716 | 
|   2 |  PF6 | Zmax |  1.0000000 |    1.0011088 |   0.0011088 |  0.0017066 | 
+..........................................................................+
|   2 |  PF6 |  AVG |  1.0000000 |    1.0011278 |   0.0011278 |  0.0017394 | 
+--------------------------------------------------------------------------+
+--------------------------------------------------------------------------+
|      OVERALL      |  1.0000000 |    1.0000015 |   0.0000015 |  0.0017362 | 
+--------------------------------------------------------------------------+
.    Trial1    0.854102       -7.11607132999483

Reusing previously generated solute cavity.
MG DL_MG: Calling solver with defect correction order = 8
MG DL_MG: Solver finished
MG Fixed charge (1/2 \int rho_f phi dr) energy term:                   0.354949
MG Mobile charge (1/2 \int rho_m phi dr) energy term:                 -0.000101
MG Osmotic pressure (-kT \int dr \sum_i c_i(r)) energy term:          -0.072686
MG Mobile ion acc. corr. (\int dr \sum_i c_i(r) * V_steric(r)):        0.000032
MG Ion atmosph. rearr. (kT \int dr \sum_i c_i(r)*ln(c_i(r)/c^0):       0.000182
MG Chemical potential (-\sum_i \mu_i \int dr c_i(r)) energy term:     -0.000012
MG                                                               --------------
MG Mean-field contribution to grand potential                          0.282364

MG Check from alternate expression:
MG Fixed charge (1/2 \int rho_f phi dr) energy term:                   0.354949
MG Minus mobile charge (-1/2 \int rho_m phi dr) energy term:           0.000101
MG -kTV\Gamma \sum_i c^bulk_i(r) (osmotic pressure) energy term:      -0.072686
MG                                                               --------------
MG Mean-field contribution to grand potential:                         0.282364

IS: MG box volume:     431893.414 a0^3. Accessible fraction: 0.997248. PBC.
IS: Charge neutralisation scheme: COUNTERIONS_AUTO.

+--------------------------- Chemical potential --------------------------+
|   # | Name | Bulk conc. |    mu_ideal   |   mu_excess   |    mu_total   |
|-------------------------------------------------------------------------|
|   1 |   Li |  0.9884357 |  -0.000010982 |  -0.000001093 |  -0.000012075 |
|   2 |  PF6 |  1.0144532 |   0.000013549 |  -0.000001474 |   0.000012075 |
|-------------------------------------------------------------------------|

+----------------- Boltzmann ion concentration and charge -----------------+
|   # | Name | Bulk conc. | Average conc. | Neutr. ratio |    Total charge |
|--------------------------------------------------------------------------|
|   1 |   Li |  0.9884357 |   0.988435726 |     0.444480 |    37.991162020 | 
|   2 |  PF6 |  1.0144532 |   1.014453245 |     0.555520 |   -38.991162079 | 
+--------------------------------------------------------------------------+
                                                    total:    -1.000000059*

+---- Concentration difference from bulk value on simcell faces (mol/L) ---+
|   # | Name | Face | Bulk conc. | Actual conc. |  Difference |  RMS diff. |
|--------------------------------------------------------------------------|
|   1 |   Li | Xmin |  1.0000000 |    0.9988563 |  -0.0011437 |  0.0017649 | 
|   1 |   Li | Xmax |  1.0000000 |    0.9988941 |  -0.0011059 |  0.0017004 | 
|   1 |   Li | Ymin |  1.0000000 |    0.9988563 |  -0.0011437 |  0.0017649 | 
|   1 |   Li | Ymax |  1.0000000 |    0.9988941 |  -0.0011059 |  0.0017004 | 
|   1 |   Li | Zmin |  1.0000000 |    0.9988563 |  -0.0011437 |  0.0017649 | 
|   1 |   Li | Zmax |  1.0000000 |    0.9988941 |  -0.0011059 |  0.0017004 | 
+..........................................................................+
|   1 |   Li |  AVG |  1.0000000 |    0.9988752 |  -0.0011248 |  0.0017330 | 
+--------------------------------------------------------------------------+
|   2 |  PF6 | Xmin |  1.0000000 |    1.0011468 |   0.0011468 |  0.0017716 | 
|   2 |  PF6 | Xmax |  1.0000000 |    1.0011088 |   0.0011088 |  0.0017066 | 
|   2 |  PF6 | Ymin |  1.0000000 |    1.0011468 |   0.0011468 |  0.0017716 | 
|   2 |  PF6 | Ymax |  1.0000000 |    1.0011088 |   0.0011088 |  0.0017066 | 
|   2 |  PF6 | Zmin |  1.0000000 |    1.0011468 |   0.0011468 |  0.0017716 | 
|   2 |  PF6 | Zmax |  1.0000000 |    1.0011088 |   0.0011088 |  0.0017066 | 
+..........................................................................+
|   2 |  PF6 |  AVG |  1.0000000 |    1.0011278 |   0.0011278 |  0.0017394 | 
+--------------------------------------------------------------------------+
+--------------------------------------------------------------------------+
|      OVERALL      |  1.0000000 |    1.0000015 |   0.0000015 |  0.0017362 | 
+--------------------------------------------------------------------------+
.    Trial2    0.909830       -7.11607224348065

Reusing previously generated solute cavity.
MG DL_MG: Calling solver with defect correction order = 8
MG DL_MG: Solver finished
MG Fixed charge (1/2 \int rho_f phi dr) energy term:                   0.354919
MG Mobile charge (1/2 \int rho_m phi dr) energy term:                 -0.000101
MG Osmotic pressure (-kT \int dr \sum_i c_i(r)) energy term:          -0.072686
MG Mobile ion acc. corr. (\int dr \sum_i c_i(r) * V_steric(r)):        0.000032
MG Ion atmosph. rearr. (kT \int dr \sum_i c_i(r)*ln(c_i(r)/c^0):       0.000182
MG Chemical potential (-\sum_i \mu_i \int dr c_i(r)) energy term:     -0.000012
MG                                                               --------------
MG Mean-field contribution to grand potential                          0.282334

MG Check from alternate expression:
MG Fixed charge (1/2 \int rho_f phi dr) energy term:                   0.354919
MG Minus mobile charge (-1/2 \int rho_m phi dr) energy term:           0.000101
MG -kTV\Gamma \sum_i c^bulk_i(r) (osmotic pressure) energy term:      -0.072686
MG                                                               --------------
MG Mean-field contribution to grand potential:                         0.282334

IS: MG box volume:     431893.414 a0^3. Accessible fraction: 0.997248. PBC.
IS: Charge neutralisation scheme: COUNTERIONS_AUTO.

+--------------------------- Chemical potential --------------------------+
|   # | Name | Bulk conc. |    mu_ideal   |   mu_excess   |    mu_total   |
|-------------------------------------------------------------------------|
|   1 |   Li |  0.9884357 |  -0.000010982 |  -0.000001093 |  -0.000012075 |
|   2 |  PF6 |  1.0144532 |   0.000013549 |  -0.000001474 |   0.000012075 |
|-------------------------------------------------------------------------|

+----------------- Boltzmann ion concentration and charge -----------------+
|   # | Name | Bulk conc. | Average conc. | Neutr. ratio |    Total charge |
|--------------------------------------------------------------------------|
|   1 |   Li |  0.9884357 |   0.988435726 |     0.444480 |    37.991162020 | 
|   2 |  PF6 |  1.0144532 |   1.014453245 |     0.555520 |   -38.991162079 | 
+--------------------------------------------------------------------------+
                                                    total:    -1.000000059*

+---- Concentration difference from bulk value on simcell faces (mol/L) ---+
|   # | Name | Face | Bulk conc. | Actual conc. |  Difference |  RMS diff. |
|--------------------------------------------------------------------------|
|   1 |   Li | Xmin |  1.0000000 |    0.9988563 |  -0.0011437 |  0.0017649 | 
|   1 |   Li | Xmax |  1.0000000 |    0.9988941 |  -0.0011059 |  0.0017004 | 
|   1 |   Li | Ymin |  1.0000000 |    0.9988563 |  -0.0011437 |  0.0017649 | 
|   1 |   Li | Ymax |  1.0000000 |    0.9988941 |  -0.0011059 |  0.0017004 | 
|   1 |   Li | Zmin |  1.0000000 |    0.9988563 |  -0.0011437 |  0.0017649 | 
|   1 |   Li | Zmax |  1.0000000 |    0.9988941 |  -0.0011059 |  0.0017004 | 
+..........................................................................+
|   1 |   Li |  AVG |  1.0000000 |    0.9988752 |  -0.0011248 |  0.0017330 | 
+--------------------------------------------------------------------------+
|   2 |  PF6 | Xmin |  1.0000000 |    1.0011468 |   0.0011468 |  0.0017716 | 
|   2 |  PF6 | Xmax |  1.0000000 |    1.0011088 |   0.0011088 |  0.0017066 | 
|   2 |  PF6 | Ymin |  1.0000000 |    1.0011468 |   0.0011468 |  0.0017716 | 
|   2 |  PF6 | Ymax |  1.0000000 |    1.0011088 |   0.0011088 |  0.0017066 | 
|   2 |  PF6 | Zmin |  1.0000000 |    1.0011468 |   0.0011468 |  0.0017716 | 
|   2 |  PF6 | Zmax |  1.0000000 |    1.0011088 |   0.0011088 |  0.0017066 | 
+..........................................................................+
|   2 |  PF6 |  AVG |  1.0000000 |    1.0011278 |   0.0011278 |  0.0017394 | 
+--------------------------------------------------------------------------+
+--------------------------------------------------------------------------+
|      OVERALL      |  1.0000000 |    1.0000015 |   0.0000015 |  0.0017362 | 
+--------------------------------------------------------------------------+
[...]
|   # | Name | Bulk conc. | Average conc. | Neutr. ratio |    Total charge |
|--------------------------------------------------------------------------|
|   1 |   Li |  0.9884357 |   0.988435711 |     0.444481 |    37.991161451 | 
|   2 |  PF6 |  1.0144532 |   1.014453230 |     0.555519 |   -38.991161510 | 
+--------------------------------------------------------------------------+
                                                    total:    -1.000000059*

+---- Concentration difference from bulk value on simcell faces (mol/L) ---+
|   # | Name | Face | Bulk conc. | Actual conc. |  Difference |  RMS diff. |
|--------------------------------------------------------------------------|
|   1 |   Li | Xmin |  1.0000000 |    0.9988563 |  -0.0011437 |  0.0017649 | 
|   1 |   Li | Xmax |  1.0000000 |    0.9988941 |  -0.0011059 |  0.0017005 | 
|   1 |   Li | Ymin |  1.0000000 |    0.9988563 |  -0.0011437 |  0.0017649 | 
|   1 |   Li | Ymax |  1.0000000 |    0.9988941 |  -0.0011059 |  0.0017005 | 
|   1 |   Li | Zmin |  1.0000000 |    0.9988563 |  -0.0011437 |  0.0017649 | 
|   1 |   Li | Zmax |  1.0000000 |    0.9988941 |  -0.0011059 |  0.0017005 | 
+..........................................................................+
|   1 |   Li |  AVG |  1.0000000 |    0.9988752 |  -0.0011248 |  0.0017330 | 
+--------------------------------------------------------------------------+
|   2 |  PF6 | Xmin |  1.0000000 |    1.0011469 |   0.0011469 |  0.0017717 | 
|   2 |  PF6 | Xmax |  1.0000000 |    1.0011088 |   0.0011088 |  0.0017067 | 
|   2 |  PF6 | Ymin |  1.0000000 |    1.0011469 |   0.0011469 |  0.0017717 | 
|   2 |  PF6 | Ymax |  1.0000000 |    1.0011088 |   0.0011088 |  0.0017067 | 
|   2 |  PF6 | Zmin |  1.0000000 |    1.0011469 |   0.0011469 |  0.0017717 | 
|   2 |  PF6 | Zmax |  1.0000000 |    1.0011088 |   0.0011088 |  0.0017067 | 
+..........................................................................+
|   2 |  PF6 |  AVG |  1.0000000 |    1.0011279 |   0.0011279 |  0.0017395 | 
+--------------------------------------------------------------------------+
+--------------------------------------------------------------------------+
|      OVERALL      |  1.0000000 |    1.0000015 |   0.0000015 |  0.0017362 | 
+--------------------------------------------------------------------------+

================================================================================
           ---------------- ENERGY COMPONENTS (Eh) ----------------
           | Kinetic                    :        4.97654851569025 |
           | Pseudo. (local,PBC,corr'd) :       -2.49469420547206 |
           | Pseudopotential (non-local):       -3.93144754721659 |
           | Hartree (molecular)        :        0.35575996659182 |
           | Exchange-correlation       :       -1.46559690708464 |
           | Ewald                      :       -0.16891123036297 |
           | Dispersion Correction      :       -0.00000000033685 |
           | Smeared ion non-self corr. :        0.16886933212356 |
           | Smeared ion self corr.     :       -4.48810065451612 |
           | Solvent cavitation energy  :        0.01166806093687 |
           | Solute-solvent dis-rep en. :       -0.00838846070904 |
           | Elect. mobile ion energy   :       -0.00010115692318 |
           | Osmotic pressure energy    :       -0.07268554466875 |
           | Acc. corr. (steric) energy :        0.00003204986466 |
           | Ionic atmo. rearrang. en.  :        0.00018233919807 |
           | Chemical pot. contribution :       -0.00001207521637 |
           | Total                      :       -7.11687751810133 |
           |------------------------------------------------------|
           | Entropic contribution      :        0.00000000000000 |
           | Total free energy          :       -7.11687751810133 |
           --------------------------------------------------------
           ------ LOCAL ENERGY COMPONENTS FROM MATRIX TRACES ------
           | Pseudopotential (local)    :       -2.49469420547205 |
           | Hartree                    :       -0.33338151000208 |
           --------------------------------------------------------
           Integrated density           :        1.99999999999953
           Integrated spin density      :        0.00000000000000
           Integrated |spin density|    :        0.00000000000000
           Local density approx. <S^2>  :        0.00000000000000
           Integrated density tr(KS)    :        2.00000000000000
           Integrated spin tr(KS)       :        0.00000000000000
================================================================================


                        <<<<< CALCULATION SUMMARY >>>>>                         
|ITER|    RMS GRADIENT   |     TOTAL ENERGY    |   step   |     Epredicted              
   0     0.00011948353886     -7.11607267665445   0.954894     -7.11687513254638        
   1     0.00000747742389     -7.11687436177476   0.895826     -7.11687730648245        
   2     0.00000206579607     -7.11687730674735   0.786492     -7.11687750433191        
   3     0.00000052254086     -7.11687750438253   0.812022     -7.11687751743650        
   4     0.00000011719396     -7.11687751744612   0.810362     -7.11687751810126        
   5     0.00000004665352     -7.11687751810133  <-- CG                                 

Reusing previously generated solute cavity.
MG DL_MG: Calling solver with defect correction order = 8
MG DL_MG: Solver finished
MG Fixed charge (1/2 \int rho_f phi dr) energy term:                   0.355760
MG Mobile charge (1/2 \int rho_m phi dr) energy term:                 -0.000101
MG Osmotic pressure (-kT \int dr \sum_i c_i(r)) energy term:          -0.072686
MG Mobile ion acc. corr. (\int dr \sum_i c_i(r) * V_steric(r)):        0.000032
MG Ion atmosph. rearr. (kT \int dr \sum_i c_i(r)*ln(c_i(r)/c^0):       0.000182
MG Chemical potential (-\sum_i \mu_i \int dr c_i(r)) energy term:     -0.000012
MG                                                               --------------
MG Mean-field contribution to grand potential                          0.283176

MG Check from alternate expression:
MG Fixed charge (1/2 \int rho_f phi dr) energy term:                   0.355760
MG Minus mobile charge (-1/2 \int rho_m phi dr) energy term:           0.000101
MG -kTV\Gamma \sum_i c^bulk_i(r) (osmotic pressure) energy term:      -0.072686
MG                                                               --------------
MG Mean-field contribution to grand potential:                         0.283176

IS: MG box volume:     431893.414 a0^3. Accessible fraction: 0.997248. PBC.
IS: Charge neutralisation scheme: COUNTERIONS_AUTO.

+--------------------------- Chemical potential --------------------------+
|   # | Name | Bulk conc. |    mu_ideal   |   mu_excess   |    mu_total   |
|-------------------------------------------------------------------------|
|   1 |   Li |  0.9884357 |  -0.000010982 |  -0.000001093 |  -0.000012075 |
|   2 |  PF6 |  1.0144532 |   0.000013549 |  -0.000001474 |   0.000012075 |
|-------------------------------------------------------------------------|

+----------------- Boltzmann ion concentration and charge -----------------+
|   # | Name | Bulk conc. | Average conc. | Neutr. ratio |    Total charge |
|--------------------------------------------------------------------------|
|   1 |   Li |  0.9884357 |   0.988435711 |     0.444481 |    37.991161451 | 
|   2 |  PF6 |  1.0144532 |   1.014453230 |     0.555519 |   -38.991161510 | 
+--------------------------------------------------------------------------+
                                                    total:    -1.000000059*

+---- Concentration difference from bulk value on simcell faces (mol/L) ---+
|   # | Name | Face | Bulk conc. | Actual conc. |  Difference |  RMS diff. |
|--------------------------------------------------------------------------|
|   1 |   Li | Xmin |  1.0000000 |    0.9988563 |  -0.0011437 |  0.0017649 | 
|   1 |   Li | Xmax |  1.0000000 |    0.9988941 |  -0.0011059 |  0.0017005 | 
|   1 |   Li | Ymin |  1.0000000 |    0.9988563 |  -0.0011437 |  0.0017649 | 
|   1 |   Li | Ymax |  1.0000000 |    0.9988941 |  -0.0011059 |  0.0017005 | 
|   1 |   Li | Zmin |  1.0000000 |    0.9988563 |  -0.0011437 |  0.0017649 | 
|   1 |   Li | Zmax |  1.0000000 |    0.9988941 |  -0.0011059 |  0.0017005 | 
+..........................................................................+
|   1 |   Li |  AVG |  1.0000000 |    0.9988752 |  -0.0011248 |  0.0017330 | 
+--------------------------------------------------------------------------+
|   2 |  PF6 | Xmin |  1.0000000 |    1.0011469 |   0.0011469 |  0.0017717 | 
|   2 |  PF6 | Xmax |  1.0000000 |    1.0011088 |   0.0011088 |  0.0017067 | 
|   2 |  PF6 | Ymin |  1.0000000 |    1.0011469 |   0.0011469 |  0.0017717 | 
|   2 |  PF6 | Ymax |  1.0000000 |    1.0011088 |   0.0011088 |  0.0017067 | 
|   2 |  PF6 | Zmin |  1.0000000 |    1.0011469 |   0.0011469 |  0.0017717 | 
|   2 |  PF6 | Zmax |  1.0000000 |    1.0011088 |   0.0011088 |  0.0017067 | 
+..........................................................................+
|   2 |  PF6 |  AVG |  1.0000000 |    1.0011279 |   0.0011279 |  0.0017395 | 
+--------------------------------------------------------------------------+
+--------------------------------------------------------------------------+
|      OVERALL      |  1.0000000 |    1.0000015 |   0.0000015 |  0.0017362 | 
+--------------------------------------------------------------------------+

    Mulliken Atomic Populations
    ---------------------------
Species  Ion    Total   Charge (e)    Spin (hbar)
=================================================
  Li     1       2.000      1.000      0.00
=================================================

        Bond         Population      Spin       Length (bohr)
=============================================================
=============================================================


============== Orbital energy and occupancy information for spin 1 =============

      Total number of orbitals:       5
        Occupancy sum (kernel):       1.000000000
   Occupancy sum (eigenvalues):       1.000000000
                 HOMO-LUMO gap:       1.978726455 Eh
                 Mid-gap level:      -1.010313446 Eh

                        Orbital | Energy (Eh) | Occupancy
                            1    -1.999676674   1.0000000
                        ....... -- gap at 0K -- .........
                            2    -0.020950219  -0.0000000
                            3     0.060655936   0.0000000
                            4     0.060656079   0.0000000
                            5     0.060656193   0.0000000

================================================================================

============== Orbital energy and occupancy information for spin 2 =============

      Total number of orbitals:       5
        Occupancy sum (kernel):       1.000000000
   Occupancy sum (eigenvalues):       1.000000000
                 HOMO-LUMO gap:       1.978726455 Eh
                 Mid-gap level:      -1.010313446 Eh

                        Orbital | Energy (Eh) | Occupancy
                            1    -1.999676674   1.0000000
                        ....... -- gap at 0K -- .........
                            2    -0.020950219  -0.0000000
                            3     0.060655936   0.0000000
                            4     0.060656079   0.0000000
                            5     0.060656193   0.0000000

================================================================================

===================== Writing canonical molecular orbitals =====================
    Spin 1
| Orbital  Energy (eV)  Norm     |
| HOMO    -54.41397106  1.000000 | 
| LUMO     -0.57008447  1.000000 | 
| LUMO+1    1.65053201  1.000000 | 
| LUMO+2    1.65053589  1.000000 | 
| LUMO+3    1.65053899  1.000000 | 
================================================================================

===================== Writing canonical molecular orbitals =====================
    Spin 2
| Orbital  Energy (eV)  Norm     |
| HOMO    -54.41397106  1.000000 | 
| LUMO     -0.57008447  1.000000 | 
| LUMO+1    1.65053201  1.000000 | 
| LUMO+2    1.65053589  1.000000 | 
| LUMO+3    1.65053899  1.000000 | 
================================================================================
 
=============== Density of States (DOS) calculation for UP spin ================
Writing "li_UP_DOS.txt" ... done
================================================================================
 
============== Density of States (DOS) calculation for DOWN spin ===============
Writing "li_DN_DOS.txt" ... done
================================================================================
 
Writing bands to file "li.val_bands" ... done

                                                      hartree           kcal/mol
IS: NB: Energy of pure electrolyte:         -0.07288611142496         -45.736724

------------------------------ TIMING INFORMATION ------------------------------
AVERAGE TIME:   19592.728s on      1 proc(s)                                    
TOTAL TIME:     19592.728s on      1 proc(s)                                    
================= AVERAGE TIMINGS FROM ALL PROCS (CUMULATIVE) ==================
|| TAG                                    #calls    cpu time   %total  Gflops ||
|| onetep.F90 main loop imbalance       :     1        0.00s   0.000%  ------ ||
|| onetep.F90 final imbalance           :     1        0.00s   0.000%  ------ ||
|| density_fftbox_interp_mult_imbal     :  3010        0.00s   0.000%  ------ ||
|| vdwcorrection_calculate_energy       :     1        0.00s   0.000%  ------ ||
|| basis_extract_function_from_box      :   120        0.00s   0.000%  ------ ||
|| parallel_prepare_fd_halos_comms_wait :   906        0.00s   0.000%  ------ ||
|| sparse_spam3toblacs_real_fast_imbal  :  1184        0.00s   0.000%  ------ ||
|| sparse_blacstospam3_real_fast_imbal  :  1168        0.00s   0.000%  ------ ||
|| parallel_prepare_fd_halos_comms_imbal:   906        0.00s   0.000%  ------ ||
|| ewald_calculate_energy               :     1        0.00s   0.000%  ------ ||
|| sparse_spam3toblacs_real_fast_B2     :  1184        0.00s   0.000%  ------ ||
|| sparse_set_to_garbage                :    84        0.00s   0.000%  ------ ||
|| parallel_prepare_fd_halos_request    :   906        0.00s   0.000%  ------ ||
|| sparse_init                          :     1        0.00s   0.000%  ------ ||
|| parallel_prepare_fd_halos_satisfy    :   906        0.01s   0.000%  ------ ||
|| ngwfs_initialise_from_radial         :     1        0.01s   0.000%  ------ ||
|| pseudopotentials_nonlocal_mat        :    11        0.01s   0.000%  ------ ||
|| sparse_spam3toblacs_real_fast_B1     :  1184        0.01s   0.000%  ------ ||
|| ngwf_gradient_coeffs                 :     6        0.01s   0.000%  ------ ||
|| basis_dot_function_with_box          :  3475        0.01s   0.000%  ------ ||
|| function_ops_brappd_ketppd_spam3     :    21        0.01s   0.000%  ------ ||
|| sparse_embed_hotelling_invert_embed  :    11        0.02s   0.000%  ------ ||
|| parallel_prepare_fd_halos_alloc      :   906        0.03s   0.000%  ------ ||
|| sparse_spam3toblacs_real_fast        :  1184        0.04s   0.000%  ------ ||
|| restart_hamiltonian_write            :     6        0.04s   0.000%  ------ ||
|| basis_add_function_to_box            : 16250        0.05s   0.000%  ------ ||
|| pseudo_make_structure_factor         :     1        0.05s   0.000%  ------ ||
|| sparse_blacstospam3_real_fast        :  1168        0.08s   0.000%  ------ ||
|| fourier_apply_box_pair               :   153        0.10s   0.001% 241.948 ||
|| restart_kernel_write                 :     7        0.12s   0.001%  ------ ||
|| dense_eigensolve                     :   576        0.13s   0.001%  ------ ||
|| sparse_product                       :  1755        0.14s   0.001%  ------ ||
|| eigenstates_calculate                :     1        0.15s   0.001%  ------ ||
|| cell_grid_extract_box_real           :   828        0.19s   0.001%  ------ ||
|| integrals_locpot_mat_els_batch       :   128        0.19s   0.001%  ------ ||
|| edft_diag_ngwf_ham                   :   574        0.20s   0.001%  ------ ||
|| basis_copy_function_to_box           :  3780        0.22s   0.001%  ------ ||
|| boltzmann_init_steric_pot            :     1        0.22s   0.001%  ------ ||
|| sparse_trace                         :  4038        0.30s   0.002%  ------ ||
|| density_init_guess_real              :     1        0.33s   0.002%  ------ ||
|| restart_ngwfs_tightbox_output        :     5        0.39s   0.002%  ------ ||
|| pseudopotentials_local_on_grid       :     1        0.52s   0.003%  ------ ||
|| edft_apply_smearing_operator         :   287        0.65s   0.003%  ------ ||
|| density_batch_row_sums               :   602        0.65s   0.003%  ------ ||
|| parallel_prepare_fd_halos_clear      :   906        0.87s   0.004%  ------ ||
|| parallel_prepare_fd_halos            :   906        0.92s   0.005%  ------ ||
|| integrals_kinetic_spam3              :    11        1.02s   0.005%  ------ ||
|| cell_grid_deposit_box_real           :  3062        1.06s   0.005%  ------ ||
|| smeared_ion_generate_potential_PBC   :     1        1.25s   0.006%  ------ ||
|| projectors_func_ovlp_box_spam3       :    11        1.85s   0.009%  ------ ||
|| density_fftbox_deposit_to_cell       :  3010        1.96s   0.010%  ------ ||
|| energy_and_force_init_cell           :     1        2.35s   0.012%  ------ ||
|| projectors_init_fftbox_recip         :    23        2.91s   0.015%  ------ ||
|| projectors_gradient_batch            :    12        3.81s   0.019%  ------ ||
|| density_fftbox_interpolate_multiply  :  3010       14.48s   0.074%  ------ ||
|| fourier_apply_box                    :  8043       14.81s   0.076% 444.453 ||
|| finite_difference_derivative         :   906       14.97s   0.076%  ------ ||
|| ngwf_gradient_build_batch            :    12       18.02s   0.092%  ------ ||
|| ngwf_gradient_batch                  :    12       20.50s   0.105%  ------ ||
|| ngwf_gradient_lnv                    :     6       21.47s   0.110%  ------ ||
|| properties_calculate                 :     1       66.00s   0.337%  ------ ||
|| potential_apply_to_ngwf_batch        :   128      123.77s   0.632%  ------ ||
|| integrals_locpot_dbl_grid            :   128      124.08s   0.633%  ------ ||
|| hamiltonian_energy_components        :     2      137.00s   0.699%  ------ ||
|| density_batch_interp_deposit         :   602      307.07s   1.567%  ------ ||
|| density_on_dbl_grid                  :   602      325.45s   1.661%  ------ ||
|| fourier_apply_cell_backward          :  2424     1081.14s   5.518%   5.374 ||
|| fourier_apply_cell_forward           :  2419     1626.13s   8.300%   3.566 ||
|| xc_energy_potential                  :   302     3426.98s  17.491%  ------ ||
|| dl_mg_solver_calls                   :   302    12937.28s  66.031%  ------ ||
|| multigrid_calculate_hartree          :   302    15447.01s  78.841%  ------ ||
|| edft_calculate                       :     6    18945.16s  96.695%  ------ ||
|| hamiltonian_lhxc_calculate           :   299    19210.66s  98.050%  ------ ||
|| ngwf_cg_optimise                     :     1    19428.64s  99.163%  ------ ||
|| energy_and_forces                    :     1    19589.61s  99.984%  ------ ||
|| total_time                           :     1    19592.73s 100.000%  ------ ||
================================================================================
Overhead of generating timer report: 
- 0 ms averaging over threads,
- 0 ms ensuring consistency across MPI ranks,
- 34 ms printing in order.

Job completed: 16-10-2023 18:09 (+0100)

onetep_launcher: ONETEP seems to have finished correctly (zero exit code).
