 +---------------------------------------------------------------+
 |                                                               |
 |        ####### #     # ####### ####### ####### ######         |
 |        #     # ##    # #          #    #       #     #        |
 |        #     # # #   # #          #    #       #     #        |
 |        #     # #  #  # #####      #    #####   ######         |
 |        #     # #   # # #          #    #       #              |
 |        #     # #    ## #          #    #       #              |
 |        ####### #     # #######    #    ####### #              |
 |                                                               |
 |        Linear-Scaling Ab Initio Total Energy Program          |
 |                                                               |
 |          Release for academic collaborators of ODG            |
 |                                             Version 6.1.59    |
 | Remote: https://github.com/onetep-devel/onetep.git            |
 | Local branch: master                                          |
 | Commit ID: 3df6b8ca88fa1735659d3248d54c94b50edec21b           |
 | Date: Thu Oct 5 13:49:52 2023 +0200                           |
 | Working tree clean                                            |
 |                                                               |
 +---------------------------------------------------------------+
 |                                                               |
 |  Authors:                                                     |
 |  Jacek Dziedzic, Peter D. Haynes, Nicholas D. M. Hine,        |
 |  Arash A. Mostofi, Mike C. Payne and Chris-Kriton Skylaris    |
 |                                                               |
 |  Contributors:                                                |
 |  J. Aarons, L. Andrinopoulos, P. W. Avraam, R. A. Bell,       |
 |  A. Bhandari, G. A. Bramley, R. J. Charlton, S. J. Clark,     |
 |  R. J. Clements, G. C. Constantinescu, F. Corsetti,           |
 |  N. Corsini, O. Dieguez, S. M. M. Dubois, K. K. B. Duff,      |
 |  J. M. Escartin, M. Escobar Azor, A. Greco,                   |
 |  H. Helal, Q. O. Hill, L. P. Lee, J.-H. Li,                   |
 |  E. B. Linscott, G. Moynihan, D. D. O`Regan,                  |
 |  O. K. Okan, M. J. S. Phipps, C. J. Pickard,                  |
 |  J. C. A. Prentice, M. I. J. Probert, L. E. Ratcliff,         |
 |  M. Robinson, A. Ruiz Serrano, M. dos Santos Dias,            |
 |  J. S. Spencer, E. W. Tait, G. Teobaldi, D. Turban,           |
 |  V. Vitale, K. A. Wilkinson, C. Weber, J. C. Womack,          |
 |  N. Yeung and T. J. Zuehlsdorff                               |
 |                                                               |
 |                                   Copyright (c) 2004-2023     |
 |                                                               |
 |  Please cite:                                                 |
 |  "The ONETEP linear-scaling density functional theory program"|
 |   J. Chem. Phys. 152(17) 174111 (2020)                        |
 |                                                               |
 |          in all publications arising from your use of ONETEP. |
 |                                                               |
 +---------------------------------------------------------------+
 |                                                               |
 |   ONETEP is based on developments described in the following  |
 |   publications:                                               |
 |                                                               |
 |  "Nonorthogonal generalized Wannier function pseudopotential  |
 |   plane-wave method".                                         |
 |   C.-K. Skylaris, A. A. Mostofi, P. D. Haynes, O. Dieguez,    |
 |   M. C. Payne.                                                |
 |   Phys. Rev. B 66 035119 (2002).                              |
 |                                                               |
 |  "Preconditioned iterative minimization for linear-scaling    |
 |   electronic structure calculations".                         |
 |   A. A. Mostofi, P. D. Haynes, C.-K. Skylaris, M. C. Payne.   |
 |   J. Chem. Phys. 119(17), pp.8842-8848 (2003).                |
 |                                                               |
 |  "Total-energy calculations on a real space grid with         |
 |   localized functions and a plane-wave basis".                |
 |   A. A. Mostofi, C.-K. Skylaris, P. D. Haynes, M. C. Payne.   |
 |   Comput. Phys. Commun. 147, pp.788-802 (2002).               |
 |                                                               |
 |  "Accurate kinetic energy evaluation in electronic structure  |
 |   calculations with localized functions on real space grids"  |
 |   C.-K. Skylaris, A. A. Mostofi, P. D. Haynes, C. J. Pickard, |
 |   M. C. Payne.                                                |
 |   Comput. Phys. Commun. 140, pp.315-322 (2001).               |
 |                                                               |
 |  "Accurate ionic forces and geometry optimization in linear-  |
 |   scaling density-functional theory with local orbitals"      |
 |   N. D. M. Hine, M. Robinson, P. D. Haynes, C.-K. Skylaris,   |
 |   M. C. Payne, and A. A. Mostofi.                             |
 |   Phys. Rev. B 83 195102 (2011).                              |
 |                                                               |
 +---------------------------------------------------------------+

Job started: 31-10-2023 22:48 (+0000)
 
Reading parameters from file "graphite.dat" ...... done

If your calculation crashes here, before "Checking processes and threads..."
is displayed, then your stack size is insufficient.
If so, use "ulimit -s unlimited" at runtime.
You can disable this check with "check_stack_size F".

Checking processes and threads...
   Determining the default number of threads...
      No default threads set at compilation time: defaulting to 1.
      OpenMP library call suggests 8 threads.
      Hybrid MPI-OpenMP compilation detected.
      Number of MPI processes > 1.
      OMP_NUM_THREADS environment variable present and
      its value matches the one obtained from the OpenMP library call.
      Using this value as default.
      Default threads: 8
      Default applies to threads_max and threads_num_fftboxes.
      Settings in the input file override this default.
   ... done

   Running with 128 MPI processes.
   There are 16 MPI processes running on the same node as the root process.
   Each MPI process is using: 
               1 threads for simulation cell FFTs.
               1 threads for parallel FFT box operations.
               8 threads for loops over batched FFT box operations.
               8 threads in other parallel regions.
   MPI Interface: S1 (use mpi_f08) (-DMPI -DUSE_MPI_F08).
   MPI_ASYNC_PROTECTS_NONBLOCKING: Yes. MPI_SUBARRAYS_SUPPORTED: Yes.
   GPU Interface: None.
... done

Basic input checks...
Resetting ngwf_cg_rotate to TRUE for EDFT calculations
... done

Reading geometry and species blocks from file "graphite.dat" ...
  Reading POSITIONS geometry from str.xyz

  <species_atomic_set> block not found: NGWF initialisation set to SOLVE
IS: Dielectric excluded regions:
    - NONE.
IS: Assigning soft sphere radii for soft sphere solvation...
IS: No soft sphere radii specified. Default Alvarez radii used for all atoms.

----------- SOFT SPHERE RADII -----------
Li  5.333
C   4.442
-----------------------------------------

    
  Number of PPD points along a3 set to 1.  This is 
  the default value, it may have been provided also in the input file.
... done


--------------------------------------------------------------------------------
---------------------------------- INPUT FILE ----------------------------------
--------------------------------------------------------------------------------

task geometryoptimization                                                       
geom_method LBFGS                                                               
geom_continuation T                                                             
write_xyz T                                                                     
edft_grand_canonical T                                                          
edft_reference_potential  -4.42 eV                                              
edft_electrode_potential 0.10 V                                                 
edft_nelec_thres 0.000001                                                       
is_dielectric_function soft_sphere                                              
is_implicit_solvent T                                                           
is_smeared_ion_rep T                                                            
is_include_apolar T                                                             
is_solvation_properties F                                                       
is_pbe                    full                                                  
is_pbe_temperature        298.15                                                
is_pbe_bc_debye_screening T                                                     
is_pbe_neutralisation_scheme counterions_auto                                   
is_pbe_energy_tolerance 1E+50                                                   
is_bc_coarseness 5                                                              
is_bc_threshold 1E-9                                                            
is_bulk_permittivity 90.7                                                       
is_solvent_surf_tension 0.0506 N/m                                              
%block sol_ions                                                                 
Li  +1 1.0                                                                      
PF6 -1 1.0                                                                      
%endblock sol_ions                                                              
is_steric_pot_type M                                                            
is_hc_steric_dens_isovalue  0.001                                               
is_hc_steric_smearing         0.4 bohr                                          
is_steric_write T                                                               
%block species_solvent_radius                                                   
Li 3.0                                                                          
C 3.0                                                                           
%endblock species_solvent_radius                                                
multigrid_bc:   P P P                                                           
ion_ion_bc:     P P P                                                           
pspot_bc:       P P P                                                           
smeared_ion_bc: P P P                                                           
mg_max_iters_vcycle 500                                                         
mg_vcyc_smoother_iter_pre 4                                                     
mg_vcyc_smoother_iter_post 4                                                    
mg_max_res_ratio 1000.0                                                         
mg_max_iters_newton 300                                                         
edft                    : T                                                     
edft_smearing_width     : 0.1 eV                                                
spin                    : 0.0                                                   
edft_spin_fix           : 2                                                     
spin_polarized          : T                                                     
cutoff_energy :  1000 eV                                                        
kernel_cutoff : 1000 bohr                                                       
xc_functional PBE                                                               
dispersion 4                                                                    
output_detail VERBOSE                                                           
do_properties T                                                                 
cube_format F                                                                   
dx_format F                                                                     
write_denskern T                                                                
write_tightbox_ngwfs T                                                          
write_hamiltonian T                                                             
%block species                                                                  
Li Li 3  5  8.0                                                                 
C  C  6  4  8.0                                                                 
%endblock species                                                               
%block species_pot                                                              
Li '/work/e89/e89/arihant/pseudo/Li.usp'                                        
C '/work/e89/e89/arihant/pseudo/C.usp'                                          
%endblock species_pot                                                           
%BLOCK LATTICE_CART                                                             
ang                                                                             
34.16920551     0.00000000     0.00000000                                       
0.00000000    19.72760000     0.00000000                                        
0.00000000     0.00000000   100.02798000                                        
%ENDBLOCK LATTICE_CART                                                          
positions_xyz_file str.xyz                                                      
     Hash =   000002704681623869758503

--------------------------------------------------------------------------------
-------------------------------- END INPUT FILE --------------------------------
--------------------------------------------------------------------------------


 
 ESDF WARNING(1): "ispbeenergytolerance" (esdf_physical) has no units. Assume "hartree".
<<<<<<<<<<<<<<<<<<<<<<<<<<<<<<<<< Full system >>>>>>>>>>>>>>>>>>>>>>>>>>>>>>>>>>
<<<<<<<<<<<<<<<<<<<<<<<<< Pseudopotential information >>>>>>>>>>>>>>>>>>>>>>>>>>
File: /work/e89/e89/arihant/pseudo/Li.usp [ 2001 points up to Gmax=  52.9 (1/bohr)]
  Atomic number:  3;  ionic charge:  3.000000
    Shell 1: l = 0; rc = 1.19 bohr
    Shell 2: l = 0; rc = 1.25 bohr
File: /work/e89/e89/arihant/pseudo/C.usp [ 2001 points up to Gmax=  52.9 (1/bohr)]
  Atomic number:  6;  ionic charge:  4.000000
    Shell 1: l = 0; rc = 1.19 bohr
  Core charge supplied for Nonlinear Core Corrections
<<<<<<<<<<<<<<<<<<<<<<<<<<<<<<<<<<<<<<<<>>>>>>>>>>>>>>>>>>>>>>>>>>>>>>>>>>>>>>>>

-------------------------- Atom counting information ---------------------------
Symbol    Natoms    Nngwfs    Nprojs
  Li        33       165        66
  C        512      2048       512
.......   ......    ......    ......
Totals:    545      2213       578
--------------------------------------------------------------------------------

=============================== PSINC grid sizes ===============================
                      Simulation cell:  143 x  91 x 416
                              FFT-box:  117 x  91 x 117
                                  PPD:   11 x   7 x   1
Grid space d1=  0.451541543008a0 (KE cutoff=  37.25706Eh =1013.81618eV)
Grid space d2=  0.409667706512a0 (KE cutoff=  45.26271Eh =1231.66098eV)
Grid space d3=  0.454388192297a0 (KE cutoff=  36.79171Eh =1001.15326eV)
================================================================================
  
WARNING in cell_grid_distribute:
Average of less than one 23-slab per proc, so workload cannot be
equally balanced between procs.

********************* Fourier parallelisation information **********************
       Coarse grid (whole simulation cell) dimensions:    143    91   416
          Real-space ('12') slabs/proc (min max mean):      3     4     3
         Recip-space ('23') slabs/proc (min max mean):      0     1     0
********************************************************************************

********************* Fourier parallelisation information **********************
       Double grid (whole simulation cell) dimensions:    286   182   832
          Real-space ('12') slabs/proc (min max mean):      6     7     6
         Recip-space ('23') slabs/proc (min max mean):      1     2     1
********************************************************************************

********************* Fourier parallelisation information **********************
         Fine grid (whole simulation cell) dimensions:    288   184   832
          Real-space ('12') slabs/proc (min max mean):      6     7     6
         Recip-space ('23') slabs/proc (min max mean):      1     2     1
         Grid scale modified to satisfy multigrid solver grid constraints
         Grid scale values after modifification:         2.01  2.02  2.00
********************************************************************************
ONETEP fine grid is 288 x 184 x 832 gridpoints, 64.5704 x 37.2798 x 189.0255 bohr.
FD multigrid is     288 x 184 x 832 gridpoints, 64.5704 x 37.2798 x 189.0255 bohr.


Atom SCF Calculation for Li : Z (AE atom) =   3 : Z (PS atom) =   3
Config String:
Orbitals (num,occ):  3     2.00 1.00 0.00
Orbitals   (num,l):  3        0    0    1
Real-space Grid (nr,dr,rmax): 1343    0.0059612519    8.0000000000
Spherical Bessel Basis (nsws,lmax,cutoff):   37    1  220.4959463253
Confining potential (l,width,scale):  0    3.0000000000  100.0000000000
Confining potential (l,width,scale):  1    3.0000000000  100.0000000000
  1         -3.7050169094   -5.2301177776    2.5388568852   -0.9989538802
  2         -6.0510920273   -4.2679357854    3.2724001845   -1.3422946715
  3         -6.7975021434   -3.8722499620    3.6648237887   -1.5325279919
  4         -7.0147472228   -3.7673066376    3.7864613280   -1.5966989055
  5         -7.0774132854   -3.7446783348    3.8157063634   -1.6161454686
  6         -7.0951992563   -3.7420177453    3.8204515040   -1.6217593843
  7         -7.1001226024   -3.7430426481    3.8200527077   -1.6233132433
  8         -7.1014239576   -3.7441529610    3.8191274553   -1.6237164860
  9         -7.1017352306   -3.7448434699    3.8184905098   -1.6238077213
 10         -7.1017916056   -3.7452114113    3.8181373932   -1.6238209669
 11         -7.1017908912   -3.7453946820    3.8179578223   -1.6238181917
 12         -7.1017822190   -3.7454828903    3.8178702968   -1.6238141227
 13         -7.1017768840   -3.7455162316    3.8178369316   -1.6238119017
 14         -7.1017732849   -3.7455353767    3.8178176959   -1.6238104459
 15         -7.1017709700   -3.7455463461    3.8178066371   -1.6238095253
 16         -7.1017695244   -3.7455526225    3.8178002910   -1.6238089565
 17         -7.1017686390   -3.7455562110    3.8177966534   -1.6238086105
 18         -7.1017681040   -3.7455582619    3.8177945697   -1.6238084022
 19         -7.1017677838   -3.7455594341    3.8177933764   -1.6238082778
 20         -7.1017675934   -3.7455601042    3.8177926929   -1.6238082039
 21         -7.1017674808   -3.7455604874    3.8177923014   -1.6238081602
 22         -7.1017674145   -3.7455607066    3.8177920771   -1.6238081344
Atom SCF converged after  22 iterations to a total energy of     -7.10176741

Atom SCF Calculation for C  : Z (AE atom) =   6 : Z (PS atom) =   4
Config String:
Orbitals (num,occ):  2     2.00 2.00
Orbitals   (num,l):  2        0    1
Real-space Grid (nr,dr,rmax): 1343    0.0059612519    8.0000000000
Spherical Bessel Basis (nsws,lmax,cutoff):   37    1  220.4959463253
Confining potential (l,width,scale):  0    3.0000000000  100.0000000000
Confining potential (l,width,scale):  1    3.0000000000  100.0000000000
  1         -5.8177092822   -1.2555419264    4.5135233515   -1.7471920893
  2         -5.6032261188   -1.3440047989    4.4246587726   -1.7090653419
  3         -5.5936068668   -1.3561735374    4.4140765627   -1.7034094417
  4         -5.5958505747   -1.3587284552    4.4121342699   -1.7022848669
  5         -5.5969687665   -1.3601698222    4.4109982405   -1.7017057890
  6         -5.5975400979   -1.3609792837    4.4103423276   -1.7013975981
  7         -5.5978435204   -1.3614297943    4.4099696476   -1.7012314972
  8         -5.5980096069   -1.3616786122    4.4097605138   -1.7011416075
  9         -5.5981021113   -1.3618152853    4.4096441572   -1.7010929151
 10         -5.5981539939   -1.3618900852    4.4095797860   -1.7010665406
 11         -5.5981831160   -1.3619309228    4.4095443105   -1.7010522599
 12         -5.5981994243   -1.3619531807    4.4095248124   -1.7010445305
 13         -5.5982085235   -1.3619652972    4.4095141175   -1.7010403487
 14         -5.5982135796   -1.3619718867    4.4095082606   -1.7010380870
 15         -5.5982163780   -1.3619754676    4.4095050573   -1.7010368642
 16         -5.5982179208   -1.3619774123    4.4095033073   -1.7010362032
 17         -5.5982187685   -1.3619784678    4.4095023522   -1.7010358460
 18         -5.5982192328   -1.3619790404    4.4095018314   -1.7010356530
 19         -5.5982194864   -1.3619793509    4.4095015476   -1.7010355488
 20         -5.5982196245   -1.3619795192    4.4095013931   -1.7010354925
 21         -5.5982196995   -1.3619796104    4.4095013090   -1.7010354621
Atom SCF converged after  21 iterations to a total energy of     -5.59821970

BC: Task: GEOMETRYOPTIMIZATION
BC: +++++++++++++++ Summary of boundary conditions ++++++++++++++
BC: |       Component       |     Keyword     |   Periodicity   |
BC: |                       |                 |     X  Y  Z [1] |
BC: |-----------------------------------------------------------|
BC: | Ion-ion               | ion_ion_bc [2]  |     P  P  P     |
BC: | Local pseudopotential | pspot_bc [3]    |     P  P  P     |
BC: | Multigrid solver      | multigrid_bc    |     P  P  P     |
BC: | Smeared ions          | smeared_ion_bc  |     P  P  P     |
BC: | Van der Waals         | vdw_bc          |     P  P  P     |
BC: +++++++++++++++++++++++++++++++++++++++++++++++++++++++++++++
BC: P: Periodic, O: Open.
BC: [1] Not strictly along X, Y, Z but rather along lattice vectors A1, A2, A3.
BC: [2] Also affected by: pbc_correction_cutoff, cutoff_coulomb_type,
BC:     is_smeared_ion_rep, is_implicit_solvent, openbc_ion_ion.
BC: [3] Also affected by: is_smeared_ion_rep, is_implicit_solvent, openbc_pspot.

================================================================================
<<<<<<<<<<<<<<<< Resuming previous ONETEP Geometry Optimisation >>>>>>>>>>>>>>>>
================================================================================

 Geometry Optimisation: output file is "graphite.geom"
 
 Reading continuation file "graphite.continuation" ...done
 Geometry Optimisation: read_tightbox_ngwfs parameter over-ridden to TRUE
 Geometry Optimisation: read_hamiltonian parameter over-ridden to T
 
                           -------------------------------
                                     Cell Contents
                           -------------------------------
 
            xxxxxxxxxxxxxxxxxxxxxxxxxxxxxxxxxxxxxxxxxxxxxxxxxxxxxxxxxxxx
            x  Element    Atom      Absolute co-ordinates of atoms     x
            x            Number        x           y           z       x
            x----------------------------------------------------------x
            x    Li        1       16.223740    9.200274   16.520292   x
            x    C         2       18.934227    9.193383   12.917577   x
            x    C         3       13.508386    9.193369   12.922035   x
            x    C         4       14.861385   11.543591   12.921719   x
            x    C         5       17.581101   11.543694   12.919599   x
            x    C         6       51.197088   27.833806   12.951977   x
            x    C         7       45.813444   27.833729   12.955050   x
            x    C         8       47.156177   30.168479   12.952868   x
            x    C         9       49.854619   30.168467   12.951454   x
            x    C        10       14.861285    6.842937   12.920779   x
            x    C        11       17.581153    6.842895   12.918701   x
            x    C        12       21.609921   13.860644   12.943926   x
            x    C        13       18.919960   13.868323   12.922746   x
            x    C        14       13.522551   13.868199   12.925413   x
            x    C        15       14.868299   16.188471   12.950755   x
            x    C        16       17.573978   16.188460   12.950475   x
            x    C        17       47.156015   25.498799   12.955703   x
            x    C        18       49.854707   25.498922   12.954203   x
            x    C        19       53.878375   32.493127   12.959621   x
            x    C        20       51.191287   32.492924   12.936635   x
            x    C        21       45.819453   32.492806   12.937088   x
            x    C        22       47.156050   34.817172   12.960009   x
            x    C        23       49.854726   34.817346   12.958406   x
            x    C        24       14.868335    2.198208   12.946944   x
            x    C        25       17.573866    2.198275   12.946582   x
            x    C        26       22.951572    2.193284   12.960335   x
            x    C        27        9.490366    2.193181   12.962495   x
            x    C        28       63.289202    2.208025   12.967570   x
            x    C        29        6.788233    2.194381   12.967662   x
            x    C        30       31.023639    2.206370   12.968063   x
            x    C        31        1.417627    2.206562   12.967039   x
            x    C        32       25.653551    2.194297   12.967097   x
            x    C        33       33.722295    2.207694   12.969402   x
            x    C        34       39.089337    2.197916   12.970708   x
            x    C        35       55.222079    2.197967   12.966981   x
            x    C        36       57.921774    2.198278   12.966494   x
            x    C        37       47.156268    2.208609   12.958726   x
            x    C        38       41.788861    2.197754   12.968935   x
            x    C        39       49.854506    2.208628   12.956804   x
            x    C        40       18.919947    4.518464   12.917789   x
            x    C        41       13.522466    4.518458   12.920615   x
            x    C        42       10.832420    4.526429   12.948214   x
            x    C        43       26.998484    4.530236   12.964604   x
            x    C        44        5.443347    4.530194   12.963974   x
            x    C        45       21.609898    4.526526   12.943930   x
            x    C        46       59.264861    4.533691   12.963865   x
            x    C        47        2.755411    4.531485   12.947294   x
            x    C        48       35.059434    4.532650   12.951334   x
            x    C        49       61.951909    4.532952   12.947166   x
            x    C        50       29.686269    4.531464   12.948776   x
            x    C        51       43.132317    4.533374   12.967356   x
            x    C        52       51.190836    4.533700   12.943202   x
            x    C        53       37.746268    4.533324   12.969821   x
            x    C        54       53.878309    4.533623   12.966208   x
            x    C        55       45.819761    4.533602   12.944843   x
            x    C        56       22.956189    6.864899   12.942242   x
            x    C        57       63.289114    6.858016   12.970455   x
            x    C        58        6.788118    6.866732   12.956000   x
            x    C        59       31.024291    6.857225   12.971160   x
            x    C        60       39.089458    6.868877   12.966867   x
            x    C        61       57.921657    6.869179   12.961923   x
            x    C        62        1.417234    6.857228   12.968690   x
            x    C        63        9.486072    6.864844   12.947427   x
            x    C        64       25.653941    6.866924   12.954785   x
            x    C        65       33.722588    6.857833   12.973738   x
            x    C        66       55.222336    6.869238   12.964360   x
            x    C        67       47.156353    6.858370   12.969692   x
            x    C        68       41.788550    6.868893   12.966950   x
            x    C        69       49.854339    6.858496   12.967498   x
            x    C        70       51.196720    9.194057   12.965625   x
            x    C        71       59.259123    9.194258   12.943561   x
            x    C        72        2.761828    9.194067   12.963115   x
            x    C        73       26.992751    9.193870   12.939362   x
            x    C        74       35.065673    9.194155   12.970246   x
            x    C        75       43.126332    9.193922   12.949207   x
            x    C        76       53.884227    9.194149   12.945871   x
            x    C        77       61.945823    9.194312   12.966401   x
            x    C        78        5.449270    9.193776   12.938846   x
            x    C        79       21.624507    9.193533   12.916666   x
            x    C        80       29.679947    9.194077   12.965594   x
            x    C        81       37.752264    9.194033   12.948195   x
            x    C        82       45.813685    9.193965   12.970019   x
            x    C        83       10.818142    9.193416   12.923952   x
            x    C        84       47.156374   11.529421   12.968061   x
            x    C        85       55.222320   11.518989   12.968486   x
            x    C        86       63.289390   11.530376   12.965168   x
            x    C        87       31.024231   11.530871   12.965718   x
            x    C        88       39.089210   11.519122   12.969787   x
            x    C        89       49.854172   11.529360   12.965935   x
            x    C        90       57.921908   11.519252   12.965051   x
            x    C        91        1.417319   11.530888   12.963322   x
            x    C        92       33.722356   11.530291   12.968357   x
            x    C        93       41.788534   11.518871   12.970779   x
            x    C        94        6.788150   11.520505   12.957988   x
            x    C        95       22.956108   11.522186   12.945905   x
            x    C        96       25.654013   11.520638   12.956765   x
            x    C        97        9.486256   11.521929   12.951027   x
            x    C        98       45.819714   13.854317   12.950281   x
            x    C        99       43.132166   13.854534   12.969398   x
            x    C       100       51.190808   13.854334   12.948551   x
            x    C       101       59.265186   13.854879   12.962553   x
            x    C       102       35.059131   13.855548   12.949857   x
            x    C       103       53.878381   13.854680   12.968319   x
            x    C       104       61.952237   13.855556   12.945908   x
            x    C       105       29.686082   13.856662   12.946465   x
            x    C       106       37.745942   13.854808   12.968256   x
            x    C       107        2.755726   13.856532   12.944997   x
            x    C       108       26.998309   13.857647   12.960785   x
            x    C       109        5.443609   13.857419   12.960223   x
            x    C       110       10.832575   13.860446   12.948041   x
            x    C       111       47.156097   16.179256   12.971953   x
            x    C       112       55.222405   16.190136   12.965461   x
            x    C       113       41.788496   16.190004   12.967699   x
            x    C       114       49.854523   16.179297   12.969919   x
            x    C       115       39.089103   16.190061   12.967176   x
            x    C       116       63.289505   16.180263   12.971434   x
            x    C       117       31.023297   16.181698   12.971068   x
            x    C       118       57.922020   16.190089   12.962915   x
            x    C       119       33.722099   16.180373   12.973131   x
            x    C       120        6.788626   16.193006   12.958685   x
            x    C       121        1.418142   16.181459   12.969998   x
            x    C       122       25.653333   16.193326   12.958140   x
            x    C       123       22.951553   16.194044   12.951634   x
            x    C       124        9.490579   16.193808   12.953628   x
            x    C       125       51.196883   18.514909   12.964278   x
            x    C       126       45.813519   18.514919   12.968103   x
            x    C       127       43.125858   18.515021   12.948784   x
            x    C       128       53.884717   18.515068   12.946085   x
            x    C       129       35.064833   18.515497   12.970542   x
            x    C       130       59.259094   18.515139   12.946310   x
            x    C       131       37.752163   18.515146   12.949503   x
            x    C       132       61.946520   18.515359   12.968911   x
            x    C       133       29.679450   18.516414   12.966912   x
            x    C       134        2.762007   18.516160   12.966609   x
            x    C       135       26.991040   18.517646   12.945211   x
            x    C       136        5.450586   18.517377   12.945472   x
            x    C       137       10.831460   18.519570   12.938390   x
            x    C       138       18.919017   18.520080   12.954193   x
            x    C       139       21.610667   18.519769   12.937255   x
            x    C       140       13.523138   18.519957   12.953913   x
            x    C       141       47.156073   20.850306   12.960217   x
            x    C       142       49.854576   20.850252   12.958610   x
            x    C       143       55.221981   20.839584   12.967822   x
            x    C       144       41.788928   20.839593   12.968896   x
            x    C       145       31.022224   20.851268   12.966559   x
            x    C       146       39.089679   20.839499   12.970147   x
            x    C       147       63.290243   20.850088   12.967484   x
            x    C       148       33.721138   20.850237   12.967912   x
            x    C       149       57.921408   20.839520   12.966817   x
            x    C       150        1.418896   20.851009   12.966980   x
            x    C       151        6.790392   20.842105   12.970829   x
            x    C       152       22.948690   20.842841   12.966837   x
            x    C       153       25.651213   20.842325   12.969394   x
            x    C       154       14.869667   20.855447   12.957630   x
            x    C       155        9.493087   20.842496   12.968867   x
            x    C       156       17.572268   20.855479   12.957910   x
            x    C       157       51.191331   23.174678   12.937042   x
            x    C       158       45.819285   23.174641   12.937595   x
            x    C       159       43.132237   23.174727   12.961756   x
            x    C       160       59.264483   23.174478   12.963309   x
            x    C       161       37.746487   23.174517   12.967212   x
            x    C       162       53.878435   23.174785   12.962267   x
            x    C       163       26.994263   23.176712   12.968958   x
            x    C       164       35.058838   23.174461   12.949170   x
            x    C       165        2.758144   23.174915   12.949588   x
            x    C       166       29.683110   23.175232   12.948193   x
            x    C       167       61.952287   23.174386   12.947700   x
            x    C       168       10.838770   23.178604   12.968225   x
            x    C       169       18.912177   23.178218   12.946004   x
            x    C       170        5.447120   23.176406   12.970404   x
            x    C       171       21.602913   23.178827   12.965812   x
            x    C       172       13.529541   23.178120   12.946552   x
            x    C       173       55.221487   25.509666   12.959371   x
            x    C       174       31.020417   25.499460   12.969403   x
            x    C       175       39.090366   25.509339   12.963088   x
            x    C       176       63.291050   25.498580   12.972024   x
            x    C       177        6.792558   25.510892   12.968030   x
            x    C       178       25.648748   25.511170   12.965825   x
            x    C       179       33.720250   25.498656   12.971186   x
            x    C       180       41.789439   25.509537   12.959961   x
            x    C       181       57.920727   25.509298   12.960375   x
            x    C       182        1.420632   25.499246   12.971181   x
            x    C       183       22.947434   25.511398   12.966941   x
            x    C       184       14.869986   25.501090   12.973169   x
            x    C       185        9.494008   25.511195   12.969699   x
            x    C       186       17.571551   25.501049   12.973162   x
            x    C       187       18.917967   27.833462   12.972201   x
            x    C       188       26.987252   27.833809   12.945349   x
            x    C       189       35.064407   27.834089   12.967840   x
            x    C       190       59.258439   27.833957   12.943494   x
            x    C       191        2.765072   27.833915   12.966183   x
            x    C       192       10.833888   27.833400   12.952168   x
            x    C       193       21.607581   27.833576   12.950053   x
            x    C       194       29.675909   27.834042   12.964293   x
            x    C       195       37.752749   27.833931   12.945301   x
            x    C       196       53.884363   27.833919   12.937055   x
            x    C       197       61.946728   27.834086   12.968100   x
            x    C       198        5.453899   27.833602   12.947263   x
            x    C       199       13.523593   27.833352   12.972397   x
            x    C       200       43.126329   27.833770   12.938574   x
            x    C       201       14.870041   30.165446   12.971635   x
            x    C       202       22.947430   30.155720   12.970892   x
            x    C       203       31.020566   30.168581   12.964222   x
            x    C       204       63.290968   30.169485   12.966538   x
            x    C       205        6.792282   30.156188   12.970953   x
            x    C       206       17.571445   30.165600   12.971614   x
            x    C       207       25.648919   30.156252   12.968949   x
            x    C       208       33.720231   30.169480   12.965784   x
            x    C       209        1.420338   30.168579   12.965984   x
            x    C       210        9.493937   30.155553   12.973439   x
            x    C       211       39.090342   30.158392   12.964803   x
            x    C       212       55.221389   30.158170   12.961897   x
            x    C       213       57.920747   30.158571   12.962074   x
            x    C       214       41.789576   30.158027   12.962454   x
            x    C       215       13.529412   32.488559   12.951803   x
            x    C       216       10.838531   32.488256   12.970060   x
            x    C       217       18.912218   32.488659   12.951428   x
            x    C       218       26.994479   32.490949   12.967573   x
            x    C       219        2.757797   32.492868   12.948172   x
            x    C       220       21.603051   32.488324   12.967975   x
            x    C       221       29.683322   32.492800   12.946852   x
            x    C       222       61.952116   32.493798   12.945212   x
            x    C       223        5.446769   32.490958   12.968850   x
            x    C       224       35.059076   32.493624   12.946818   x
            x    C       225       59.264353   32.493644   12.959399   x
            x    C       226       37.746674   32.493455   12.963351   x
            x    C       227       43.132317   32.492911   12.958956   x
            x    C       228       14.869405   34.811236   12.970689   x
            x    C       229       22.948935   34.824257   12.965682   x
            x    C       230        9.492650   34.824266   12.967581   x
            x    C       231       17.572291   34.811237   12.971035   x
            x    C       232        6.790078   34.825024   12.967231   x
            x    C       233       31.022480   34.816585   12.970385   x
            x    C       234       63.289842   34.817959   12.970380   x
            x    C       235       25.651348   34.825057   12.965845   x
            x    C       236        1.418641   34.816774   12.970659   x
            x    C       237       39.089959   34.828282   12.961154   x
            x    C       238       33.721555   34.817678   12.970982   x
            x    C       239       57.921145   34.828518   12.957932   x
            x    C       240       55.221958   34.828288   12.958307   x
            x    C       241       41.789051   34.827994   12.959188   x
            x    C       242       18.918986   37.146711   12.961065   x
            x    C       243       13.523020   37.146751   12.960715   x
            x    C       244       10.831232   37.147247   12.944409   x
            x    C       245       21.610707   37.147313   12.943202   x
            x    C       246        2.761538   37.151645   12.967672   x
            x    C       247       26.991312   37.149959   12.947787   x
            x    C       248        5.450163   37.149973   12.948084   x
            x    C       249       29.679727   37.151562   12.967983   x
            x    C       250       61.946109   37.152861   12.967866   x
            x    C       251       35.065158   37.152578   12.969575   x
            x    C       252       59.258759   37.153124   12.943831   x
            x    C       253       37.752459   37.152824   12.947010   x
            x    C       254       43.126030   37.152675   12.942359   x
            x    C       255       51.196941   37.152947   12.956407   x
            x    C       256       53.884649   37.152911   12.940030   x
            x    C       257       45.813646   37.152806   12.960083   x
            x    Li      258        0.052464   37.129597    9.395757   x
            x    Li      259        0.054669   27.810312    9.396161   x
            x    Li      260        0.052851   18.489359    9.395666   x
            x    Li      261        0.049961    9.168880    9.394243   x
            x    Li      262        8.137173   32.463489    9.397021   x
            x    Li      263        8.137396   23.154505    9.397005   x
            x    Li      264        8.123685   13.844863    9.383634   x
            x    Li      265        8.123745    4.494731    9.387049   x
            x    Li      266       16.225015    9.170474    9.371650   x
            x    Li      267       16.227172   18.512735    9.381030   x
            x    Li      268       16.226940   27.809939    9.396207   x
            x    Li      269       16.227244   37.105446    9.387825   x
            x    Li      270       24.314623   32.463546    9.394709   x
            x    Li      271       24.314819   23.154354    9.394490   x
            x    Li      272       24.331023   13.845653    9.381763   x
            x    Li      273       24.330702    4.494308    9.385259   x
            x    Li      274       32.388911   37.129854    9.395777   x
            x    Li      275       32.386283   27.810179    9.394160   x
            x    Li      276       32.388258   18.489033    9.395723   x
            x    Li      277       32.392232    9.168592    9.396423   x
            x    Li      278       40.441485   32.467679    9.388386   x
            x    Li      279       40.442345   23.150330    9.392026   x
            x    Li      280       40.443405   13.831551    9.396508   x
            x    Li      281       40.443413    4.508411    9.396460   x
            x    Li      282       48.487523   37.132607    9.386127   x
            x    Li      283       48.487764   27.808494    9.381271   x
            x    Li      284       48.487628   18.487598    9.393638   x
            x    Li      285       48.487335    9.168486    9.396301   x
            x    Li      286       56.547773   32.467798    9.387113   x
            x    Li      287       56.546995   23.150316    9.390798   x
            x    Li      288       56.546115   13.831663    9.393890   x
            x    Li      289       56.546019    4.508474    9.393673   x
            x    C       290       18.917069    9.193697    5.829716   x
            x    C       291       13.524443    9.193647    5.830260   x
            x    C       292       14.869664   11.529972    5.832185   x
            x    C       293       17.571847   11.530050    5.832017   x
            x    C       294       51.198559   27.833485    5.803409   x
            x    C       295       45.811884   27.833461    5.800091   x
            x    C       296       47.155683   30.168610    5.804622   x
            x    C       297       49.855041   30.168535    5.806409   x
            x    C       298       14.869551    6.857146    5.824859   x
            x    C       299       17.571906    6.857165    5.824629   x
            x    C       300       21.600033   13.854474    5.813666   x
            x    C       301       18.910824   13.854915    5.840581   x
            x    C       302       13.530797   13.854885    5.840349   x
            x    C       303       14.869871   16.179161    5.808099   x
            x    C       304       17.571683   16.179136    5.807765   x
            x    C       305       47.155503   25.498156    5.796911   x
            x    C       306       49.855056   25.498278    5.798790   x
            x    C       307       53.880248   32.493363    5.803627   x
            x    C       308       51.192666   32.493117    5.825664   x
            x    C       309       45.818038   32.493046    5.824653   x
            x    C       310       47.155475   34.817486    5.802549   x
            x    C       311       49.855254   34.817637    5.804301   x
            x    C       312       14.869897    2.207869    5.814636   x
            x    C       313       17.571507    2.207951    5.814164   x
            x    C       314       22.944293    2.197459    5.804964   x
            x    C       315        9.497013    2.197252    5.805914   x
            x    C       316       63.294167    2.209284    5.814041   x
            x    C       317        6.795296    2.197271    5.804103   x
            x    C       318       31.016752    2.208788    5.814143   x
            x    C       319        1.424108    2.208887    5.814951   x
            x    C       320       25.645904    2.197324    5.801801   x
            x    C       321       33.716997    2.209078    5.813914   x
            x    C       322       39.086545    2.198162    5.810717   x
            x    C       323       55.224203    2.198321    5.805967   x
            x    C       324       57.924364    2.198515    5.809978   x
            x    C       325       47.155527    2.209124    5.806592   x
            x    C       326       41.786622    2.198165    5.808722   x
            x    C       327       49.855132    2.209133    5.807945   x
            x    C       328       18.910794    4.532406    5.838775   x
            x    C       329       13.530724    4.532365    5.838695   x
            x    C       330       10.841393    4.532889    5.814811   x
            x    C       331       26.990415    4.533441    5.804497   x
            x    C       332        5.450791    4.533326    5.807169   x
            x    C       333       21.600072    4.533027    5.814755   x
            x    C       334       59.267811    4.534078    5.815297   x
            x    C       335        2.762079    4.533635    5.830654   x
            x    C       336       35.055110    4.533629    5.832995   x
            x    C       337       61.955897    4.533865    5.832815   x
            x    C       338       29.679009    4.533601    5.829363   x
            x    C       339       43.130367    4.533772    5.812254   x
            x    C       340       51.192614    4.533945    5.828707   x
            x    C       341       37.743024    4.533761    5.814908   x
            x    C       342       53.880190    4.533994    5.808868   x
            x    C       343       45.817918    4.533813    5.828718   x
            x    C       344       22.944635    6.868723    5.816529   x
            x    C       345       63.293742    6.858362    5.809025   x
            x    C       346        6.795398    6.868911    5.810467   x
            x    C       347       31.016891    6.858257    5.810574   x
            x    C       348       39.086808    6.869110    5.816722   x
            x    C       349       57.924039    6.869378    5.815650   x
            x    C       350        1.424040    6.858302    5.810039   x
            x    C       351        9.496716    6.868663    5.817313   x
            x    C       352       25.645840    6.869049    5.808391   x
            x    C       353       33.717459    6.858116    5.810286   x
            x    C       354       55.224143    6.869504    5.813691   x
            x    C       355       47.155425    6.858282    5.809233   x
            x    C       356       41.786569    6.869155    5.816511   x
            x    C       357       49.855118    6.858465    5.810582   x
            x    C       358       51.198665    9.193771    5.815714   x
            x    C       359       59.261807    9.194076    5.831996   x
            x    C       360        2.768010    9.193978    5.812215   x
            x    C       361       26.984372    9.193893    5.826734   x
            x    C       362       35.061262    9.193886    5.811950   x
            x    C       363       43.124173    9.193679    5.833798   x
            x    C       364       53.886252    9.193902    5.832869   x
            x    C       365       61.949829    9.194136    5.810501   x
            x    C       366        5.456854    9.193835    5.828483   x
            x    C       367       21.606408    9.193753    5.841219   x
            x    C       368       29.673093    9.193912    5.812086   x
            x    C       369       37.749196    9.193795    5.832794   x
            x    C       370       45.811601    9.193668    5.813143   x
            x    C       371       10.835111    9.193639    5.842000   x
            x    C       372       47.155417   11.528921    5.816367   x
            x    C       373       55.224045   11.518162    5.809207   x
            x    C       374       63.293972   11.529654    5.812666   x
            x    C       375       31.016904   11.529426    5.813687   x
            x    C       376       39.086652   11.518315    5.811397   x
            x    C       377       49.854981   11.528868    5.817656   x
            x    C       378       57.924167   11.518559    5.810525   x
            x    C       379        1.424094   11.529530    5.813187   x
            x    C       380       33.717265   11.529478    5.813943   x
            x    C       381       41.786568   11.518045    5.811909   x
            x    C       382        6.795423   11.518488    5.803935   x
            x    C       383       22.944543   11.518638    5.811259   x
            x    C       384       25.645912   11.518544    5.801659   x
            x    C       385        9.496920   11.518470    5.812085   x
            x    C       386       45.817762   13.853398    5.833991   x
            x    C       387       43.130224   13.853526    5.814075   x
            x    C       388       51.192615   13.853466    5.833971   x
            x    C       389       59.267926   13.853986    5.814336   x
            x    C       390       35.054972   13.854089    5.831927   x
            x    C       391       53.880192   13.853696    5.810889   x
            x    C       392       61.956049   13.854211    5.831754   x
            x    C       393       29.678912   13.854255    5.826658   x
            x    C       394       37.742867   13.853810    5.813712   x
            x    C       395        2.762306   13.854255    5.828075   x
            x    C       396       26.990326   13.854336    5.800320   x
            x    C       397        5.451030   13.854256    5.803151   x
            x    C       398       10.841578   13.854402    5.813608   x
            x    C       399       47.155311   16.177907    5.810856   x
            x    C       400       55.224328   16.189223    5.812916   x
            x    C       401       41.786327   16.189017    5.815398   x
            x    C       402       49.855148   16.178054    5.812170   x
            x    C       403       39.086441   16.189192    5.815569   x
            x    C       404       63.294253   16.178596    5.809106   x
            x    C       405       31.016519   16.178992    5.808357   x
            x    C       406       57.924398   16.189325    5.814998   x
            x    C       407       33.716914   16.178522    5.809160   x
            x    C       408        6.795660   16.190115    5.803902   x
            x    C       409        1.424404   16.178949    5.809168   x
            x    C       410       25.645664   16.190227    5.801370   x
            x    C       411       22.944275   16.190021    5.804911   x
            x    C       412        9.497157   16.189958    5.805836   x
            x    C       413       51.198630   18.513780    5.813193   x
            x    C       414       45.811612   18.513698    5.810349   x
            x    C       415       43.124020   18.513743    5.831323   x
            x    C       416       53.886361   18.513845    5.830905   x
            x    C       417       35.060649   18.514062    5.811773   x
            x    C       418       59.262376   18.513970    5.832843   x
            x    C       419       37.748639   18.513850    5.832648   x
            x    C       420       61.950481   18.514158    5.811923   x
            x    C       421       29.672640   18.514430    5.811756   x
            x    C       422        2.768417   18.514376    5.813417   x
            x    C       423       26.983871   18.514619    5.825788   x
            x    C       424        5.457341   18.514552    5.828278   x
            x    C       425       10.835975   18.514651    5.823828   x
            x    C       426       18.916314   18.514794    5.801027   x
            x    C       427       21.605621   18.514779    5.822551   x
            x    C       428       13.525288   18.514728    5.802111   x
            x    C       429       47.155433   20.849218    5.808794   x
            x    C       430       49.854998   20.849188    5.810478   x
            x    C       431       55.224217   20.838269    5.806706   x
            x    C       432       41.786445   20.838234    5.808217   x
            x    C       433       31.016173   20.849513    5.815240   x
            x    C       434       39.086217   20.838282    5.810205   x
            x    C       435       63.294625   20.849460    5.814821   x
            x    C       436       33.716592   20.849399    5.814189   x
            x    C       437       57.924637   20.838438    5.810489   x
            x    C       438        1.424749   20.849530    5.816574   x
            x    C       439        6.795981   20.838874    5.809013   x
            x    C       440       22.944042   20.839248    5.804935   x
            x    C       441       25.645290   20.838917    5.805980   x
            x    C       442       14.869967   20.850208    5.800006   x
            x    C       443        9.497373   20.839058    5.806841   x
            x    C       444       17.571593   20.850274    5.799306   x
            x    C       445       51.192606   23.173897    5.823636   x
            x    C       446       45.817885   23.173843    5.822499   x
            x    C       447       43.130273   23.173772    5.806478   x
            x    C       448       59.268312   23.173844    5.814011   x
            x    C       449       37.742507   23.173753    5.812018   x
            x    C       450       53.880254   23.173863    5.804829   x
            x    C       451       26.989448   23.174311    5.810162   x
            x    C       452       35.054387   23.173875    5.831792   x
            x    C       453        2.763068   23.174078    5.834657   x
            x    C       454       29.678031   23.174150    5.831862   x
            x    C       455       61.956599   23.173909    5.833305   x
            x    C       456       10.842034   23.174313    5.810856   x
            x    C       457       18.910389   23.174619    5.823619   x
            x    C       458        5.451728   23.174192    5.813846   x
            x    C       459       21.599482   23.174444    5.809480   x
            x    C       460       13.531175   23.174578    5.824470   x
            x    C       461       55.224217   25.509242    5.806967   x
            x    C       462       31.015793   25.498478    5.810057   x
            x    C       463       39.086515   25.509034    5.811176   x
            x    C       464       63.294679   25.498205    5.810519   x
            x    C       465        6.796278   25.509415    5.814279   x
            x    C       466       25.644942   25.509574    5.811003   x
            x    C       467       33.716517   25.498234    5.808635   x
            x    C       468       41.786544   25.509057    5.808159   x
            x    C       469       57.924342   25.509124    5.811783   x
            x    C       470        1.425122   25.498415    5.812636   x
            x    C       471       22.943863   25.509516    5.812107   x
            x    C       472       14.870066   25.498684    5.805441   x
            x    C       473        9.497480   25.509425    5.814093   x
            x    C       474       17.571421   25.498616    5.804614   x
            x    C       475       18.916027   27.833676    5.809916   x
            x    C       476       26.983436   27.833918    5.828856   x
            x    C       477       35.060454   27.833807    5.809280   x
            x    C       478       59.262311   27.833745    5.828977   x
            x    C       479        2.768937   27.833849    5.815106   x
            x    C       480       10.836309   27.833611    5.831412   x
            x    C       481       21.605142   27.833745    5.829510   x
            x    C       482       29.672006   27.833865    5.811915   x
            x    C       483       37.748757   27.833638    5.827816   x
            x    C       484       53.886152   27.833615    5.823465   x
            x    C       485       61.950676   27.833849    5.811068   x
            x    C       486        5.457681   27.833723    5.832064   x
            x    C       487       13.525486   27.833610    5.811479   x
            x    C       488       43.124440   27.833460    5.823192   x
            x    C       489       14.870104   30.168430    5.812312   x
            x    C       490       22.943819   30.157873    5.807554   x
            x    C       491       31.015923   30.169099    5.813455   x
            x    C       492       63.294698   30.169338    5.813646   x
            x    C       493        6.796087   30.157873    5.808723   x
            x    C       494       17.571310   30.168533    5.811487   x
            x    C       495       25.645034   30.158023    5.805650   x
            x    C       496       33.716454   30.169280    5.811866   x
            x    C       497        1.424914   30.169134    5.815935   x
            x    C       498        9.497444   30.157662    5.809420   x
            x    C       499       39.086529   30.158008    5.804676   x
            x    C       500       55.224142   30.157895    5.801464   x
            x    C       501       57.924456   30.158175    5.805078   x
            x    C       502       41.786726   30.157801    5.802952   x
            x    C       503       13.531007   32.492509    5.829774   x
            x    C       504       10.841855   32.492842    5.812829   x
            x    C       505       18.910423   32.492637    5.828758   x
            x    C       506       26.989528   32.493380    5.809283   x
            x    C       507        2.762882   32.493567    5.833601   x
            x    C       508       21.599534   32.493017    5.811463   x
            x    C       509       29.678110   32.493546    5.830980   x
            x    C       510       61.956434   32.493773    5.830955   x
            x    C       511        5.451565   32.493307    5.812608   x
            x    C       512       35.054544   32.493658    5.829486   x
            x    C       513       59.268222   32.493717    5.810072   x
            x    C       514       37.742673   32.493562    5.808297   x
            x    C       515       43.130399   32.493223    5.805549   x
            x    C       516       14.869676   34.816688    5.804244   x
            x    C       517       22.944217   34.828134    5.811933   x
            x    C       518        9.497107   34.828014    5.813665   x
            x    C       519       17.571608   34.816685    5.803368   x
            x    C       520        6.795842   34.828408    5.814055   x
            x    C       521       31.016228   34.818003    5.810802   x
            x    C       522       63.294311   34.818100    5.809397   x
            x    C       523       25.645333   34.828535    5.811425   x
            x    C       524        1.424610   34.818001    5.812157   x
            x    C       525       39.086540   34.828753    5.810043   x
            x    C       526       33.716783   34.818008    5.808586   x
            x    C       527       57.924423   34.828966    5.810219   x
            x    C       528       55.224293   34.828887    5.806733   x
            x    C       529       41.786601   34.828627    5.808377   x
            x    C       530       18.916305   37.152319    5.807540   x
            x    C       531       13.525111   37.152331    5.808912   x
            x    C       532       10.835750   37.152473    5.829191   x
            x    C       533       21.605655   37.152612    5.827673   x
            x    C       534        2.768193   37.153309    5.814775   x
            x    C       535       26.984070   37.152930    5.828763   x
            x    C       536        5.457067   37.152859    5.830932   x
            x    C       537       29.672769   37.153278    5.813193   x
            x    C       538       61.950287   37.153584    5.811031   x
            x    C       539       35.060810   37.153422    5.810647   x
            x    C       540       59.262217   37.153717    5.830334   x
            x    C       541       37.748835   37.153418    5.830129   x
            x    C       542       43.124229   37.153277    5.826217   x
            x    C       543       51.198729   37.153344    5.806682   x
            x    C       544       53.886401   37.153477    5.825788   x
            x    C       545       45.811821   37.153230    5.803738   x
            xxxxxxxxxxxxxxxxxxxxxxxxxxxxxxxxxxxxxxxxxxxxxxxxxxxxxxxxxxxx
 

LBFGS: continuation file name is "graphite.continuation"
 LBFGS: Restarting previous  geometry optimization.
 avg_mass=  21334.589798662262
 Enthalpy contributions:
                  total energy=  -2.92488994E+003 Eh
        diagonal pressure term=   0.00000000E+000 Eh
    off-diagonal pressure term=   0.00000000E+000 Eh
 LBFGS: finished iteration   0  with enthalpy= -2.924889936357E+003 Eh
  
 +-----------+-----------------+-----------------+------------+-----+ <-- LBFGS
 | Parameter |      value      |    tolerance    |    units   | OK? | <-- LBFGS
 +-----------+-----------------+-----------------+------------+-----+ <-- LBFGS
 |  dE/ion   |   0.000000E+000 |   1.000000E-006 |         Eh | No  | <-- LBFGS
 |  |F|max   |   1.310497E-003 |   2.000000E-003 |    Eh/Bohr | Yes | <-- LBFGS
 |  |dR|max  |   0.000000E+000 |   5.000000E-003 |       Bohr | No  | <-- LBFGS
 +-----------+-----------------+-----------------+------------+-----+ <-- LBFGS
  

================================================================================
 Starting LBFGS iteration    1 ...
================================================================================
 Writing xyz coordinates to file "graphite.xyz" ... done

 Writing continuation file "graphite.continuation" ...done
 Backing up NGWFs to file "graphite.tightbox_ngwfs.bfgs_back" ... done
 Backing up Hamiltonian to file "graphite.ham.bfgs_back" ... done
  
 +------------+-------------+-------------+-----------------+ <-- min LBFGS
 |    Step    |   lambda    |   F.delta   |    enthalpy     | <-- min LBFGS
 +------------+-------------+-------------+-----------------+ <-- min LBFGS
 |  previous  |    0.000000 |    0.000045 |    -2924.889936 | <-- min LBFGS
 +------------+-------------+-------------+-----------------+ <-- min LBFGS
  

--------------------------------------------------------------------------------
 LBFGS: starting iteration   1 with trial guess (lambda=    1.000000)
--------------------------------------------------------------------------------
 
                           -------------------------------
                                     Cell Contents
                           -------------------------------
 
            xxxxxxxxxxxxxxxxxxxxxxxxxxxxxxxxxxxxxxxxxxxxxxxxxxxxxxxxxxxx
            x  Element    Atom      Absolute co-ordinates of atoms     x
            x            Number        x           y           z       x
            x----------------------------------------------------------x
            x    Li        1       16.223893    9.200185   16.521341   x
            x    C         2       18.934193    9.193421   12.917415   x
            x    C         3       13.508442    9.193390   12.922097   x
            x    C         4       14.861543   11.543526   12.921597   x
            x    C         5       17.580996   11.543616   12.919482   x
            x    C         6       51.197345   27.833842   12.951946   x
            x    C         7       45.813185   27.833766   12.955070   x
            x    C         8       47.156057   30.168656   12.952744   x
            x    C         9       49.854733   30.168609   12.951356   x
            x    C        10       14.861383    6.842965   12.920605   x
            x    C        11       17.581100    6.842941   12.918522   x
            x    C        12       21.609693   13.861068   12.943856   x
            x    C        13       18.920049   13.868322   12.923236   x
            x    C        14       13.522431   13.868215   12.925899   x
            x    C        15       14.867962   16.188542   12.950575   x
            x    C        16       17.574308   16.188530   12.950377   x
            x    C        17       47.155840   25.498598   12.955655   x
            x    C        18       49.854879   25.498745   12.954171   x
            x    C        19       53.878396   32.493250   12.959665   x
            x    C        20       51.191425   32.492973   12.936873   x
            x    C        21       45.819291   32.492860   12.937294   x
            x    C        22       47.155850   34.817167   12.959979   x
            x    C        23       49.854910   34.817352   12.958407   x
            x    C        24       14.868031    2.198139   12.946675   x
            x    C        25       17.574161    2.198184   12.946395   x
            x    C        26       22.951504    2.192896   12.960263   x
            x    C        27        9.490443    2.192809   12.962439   x
            x    C        28       63.289208    2.208198   12.967384   x
            x    C        29        6.788044    2.194232   12.967528   x
            x    C        30       31.023320    2.206686   12.967900   x
            x    C        31        1.417946    2.206878   12.966913   x
            x    C        32       25.653728    2.194192   12.966973   x
            x    C        33       33.722279    2.207863   12.969211   x
            x    C        34       39.089391    2.197660   12.970692   x
            x    C        35       55.221969    2.197797   12.966957   x
            x    C        36       57.921704    2.198045   12.966476   x
            x    C        37       47.156059    2.208702   12.958549   x
            x    C        38       41.788979    2.197608   12.968938   x
            x    C        39       49.854692    2.208699   12.956639   x
            x    C        40       18.920045    4.518330   12.918202   x
            x    C        41       13.522338    4.518334   12.921009   x
            x    C        42       10.832631    4.526072   12.948034   x
            x    C        43       26.998585    4.530070   12.964464   x
            x    C        44        5.443240    4.530037   12.963890   x
            x    C        45       21.609670    4.526157   12.943856   x
            x    C        46       59.264823    4.533774   12.963809   x
            x    C        47        2.755720    4.531673   12.947359   x
            x    C        48       35.059501    4.532643   12.951428   x
            x    C        49       61.951812    4.532938   12.947225   x
            x    C        50       29.685946    4.531636   12.948804   x
            x    C        51       43.132243    4.533479   12.967351   x
            x    C        52       51.191216    4.533605   12.943349   x
            x    C        53       37.746305    4.533416   12.969813   x
            x    C        54       53.878402    4.533717   12.966279   x
            x    C        55       45.819367    4.533496   12.944967   x
            x    C        56       22.956360    6.865169   12.941956   x
            x    C        57       63.289335    6.857883   12.970398   x
            x    C        58        6.787925    6.866879   12.955776   x
            x    C        59       31.023754    6.857275   12.971161   x
            x    C        60       39.089573    6.868943   12.966672   x
            x    C        61       57.921523    6.869216   12.961751   x
            x    C        62        1.417767    6.857304   12.968727   x
            x    C        63        9.485896    6.865111   12.947196   x
            x    C        64       25.654153    6.867029   12.954663   x
            x    C        65       33.722359    6.857720   12.973721   x
            x    C        66       55.222227    6.869359   12.964234   x
            x    C        67       47.156033    6.858169   12.969660   x
            x    C        68       41.788669    6.868990   12.966854   x
            x    C        69       49.854644    6.858327   12.967490   x
            x    C        70       51.197304    9.194083   12.965565   x
            x    C        71       59.259040    9.194181   12.943678   x
            x    C        72        2.762279    9.194083   12.963073   x
            x    C        73       26.992859    9.193806   12.939400   x
            x    C        74       35.065899    9.194183   12.970170   x
            x    C        75       43.126106    9.193862   12.949320   x
            x    C        76       53.884449    9.194074   12.945957   x
            x    C        77       61.945594    9.194341   12.966392   x
            x    C        78        5.449127    9.193704   12.938824   x
            x    C        79       21.624423    9.193472   12.917104   x
            x    C        80       29.679483    9.194085   12.965570   x
            x    C        81       37.752306    9.193962   12.948271   x
            x    C        82       45.813098    9.193997   12.970006   x
            x    C        83       10.818148    9.193348   12.924421   x
            x    C        84       47.156129   11.529574   12.967898   x
            x    C        85       55.222150   11.518833   12.968460   x
            x    C        86       63.289667   11.530443   12.964998   x
            x    C        87       31.023764   11.530755   12.965615   x
            x    C        88       39.089287   11.518999   12.969684   x
            x    C        89       49.854407   11.529504   12.965792   x
            x    C        90       57.921819   11.519154   12.964992   x
            x    C        91        1.417794   11.530744   12.963248   x
            x    C        92       33.722066   11.530352   12.968225   x
            x    C        93       41.788711   11.518747   12.970761   x
            x    C        94        6.787906   11.520341   12.957856   x
            x    C        95       22.956211   11.521897   12.945717   x
            x    C        96       25.654271   11.520499   12.956710   x
            x    C        97        9.486126   11.521662   12.950889   x
            x    C        98       45.819308   13.854276   12.950368   x
            x    C        99       43.132082   13.854505   12.969375   x
            x    C       100       51.191189   13.854306   12.948663   x
            x    C       101       59.265124   13.854850   12.962479   x
            x    C       102       35.059219   13.855412   12.949958   x
            x    C       103       53.878484   13.854653   12.968349   x
            x    C       104       61.952140   13.855409   12.945976   x
            x    C       105       29.685757   13.856335   12.946508   x
            x    C       106       37.745993   13.854774   12.968245   x
            x    C       107        2.756032   13.856206   12.945086   x
            x    C       108       26.998421   13.857865   12.960673   x
            x    C       109        5.443510   13.857625   12.960144   x
            x    C       110       10.832762   13.860890   12.947854   x
            x    C       111       47.155830   16.179095   12.971913   x
            x    C       112       55.222340   16.190247   12.965315   x
            x    C       113       41.788570   16.190108   12.967584   x
            x    C       114       49.854779   16.179171   12.969900   x
            x    C       115       39.089232   16.190278   12.967015   x
            x    C       116       63.289446   16.180045   12.971375   x
            x    C       117       31.022894   16.181336   12.971029   x
            x    C       118       57.921858   16.190267   12.962755   x
            x    C       119       33.722145   16.180167   12.973069   x
            x    C       120        6.788505   16.193090   12.958416   x
            x    C       121        1.418517   16.181111   12.970005   x
            x    C       122       25.653448   16.193382   12.957890   x
            x    C       123       22.951534   16.194367   12.951369   x
            x    C       124        9.490592   16.194140   12.953401   x
            x    C       125       51.197314   18.514869   12.964266   x
            x    C       126       45.813097   18.514874   12.968139   x
            x    C       127       43.125769   18.514844   12.948926   x
            x    C       128       53.884797   18.514885   12.946198   x
            x    C       129       35.065026   18.515598   12.970513   x
            x    C       130       59.258976   18.514975   12.946414   x
            x    C       131       37.752269   18.514979   12.949584   x
            x    C       132       61.946320   18.515472   12.968964   x
            x    C       133       29.678885   18.516453   12.966959   x
            x    C       134        2.762553   18.516215   12.966583   x
            x    C       135       26.990692   18.517675   12.945297   x
            x    C       136        5.450918   18.517396   12.945519   x
            x    C       137       10.831480   18.519685   12.938386   x
            x    C       138       18.919226   18.520348   12.954068   x
            x    C       139       21.610636   18.519881   12.937230   x
            x    C       140       13.522930   18.520227   12.953801   x
            x    C       141       47.155912   20.850268   12.960047   x
            x    C       142       49.854732   20.850200   12.958467   x
            x    C       143       55.221902   20.839261   12.967802   x
            x    C       144       41.788982   20.839296   12.968901   x
            x    C       145       31.021973   20.851519   12.966319   x
            x    C       146       39.089514   20.839341   12.970070   x
            x    C       147       63.290177   20.850331   12.967334   x
            x    C       148       33.721225   20.850464   12.967792   x
            x    C       149       57.921560   20.839385   12.966764   x
            x    C       150        1.419158   20.851259   12.966749   x
            x    C       151        6.790616   20.841835   12.970849   x
            x    C       152       22.948387   20.842460   12.966769   x
            x    C       153       25.650990   20.842069   12.969437   x
            x    C       154       14.869767   20.855578   12.957327   x
            x    C       155        9.493375   20.842114   12.968843   x
            x    C       156       17.572151   20.855615   12.957640   x
            x    C       157       51.191468   23.174500   12.937215   x
            x    C       158       45.819135   23.174460   12.937739   x
            x    C       159       43.132231   23.174666   12.961710   x
            x    C       160       59.264747   23.174594   12.963232   x
            x    C       161       37.746237   23.174626   12.967202   x
            x    C       162       53.878438   23.174717   12.962302   x
            x    C       163       26.994307   23.176436   12.968947   x
            x    C       164       35.058771   23.174660   12.949280   x
            x    C       165        2.758260   23.175028   12.949651   x
            x    C       166       29.682981   23.175315   12.948238   x
            x    C       167       61.952350   23.174572   12.947762   x
            x    C       168       10.839046   23.177974   12.968271   x
            x    C       169       18.912266   23.177800   12.946074   x
            x    C       170        5.447071   23.176137   12.970443   x
            x    C       171       21.602640   23.178177   12.965887   x
            x    C       172       13.529444   23.177696   12.946570   x
            x    C       173       55.221671   25.509774   12.959211   x
            x    C       174       31.020363   25.499398   12.969334   x
            x    C       175       39.090004   25.509546   12.962919   x
            x    C       176       63.290871   25.498600   12.972000   x
            x    C       177        6.792390   25.510803   12.967790   x
            x    C       178       25.648904   25.511062   12.965624   x
            x    C       179       33.720438   25.498704   12.971174   x
            x    C       180       41.789250   25.509622   12.959843   x
            x    C       181       57.921052   25.509505   12.960234   x
            x    C       182        1.420661   25.499200   12.971129   x
            x    C       183       22.947316   25.511045   12.966742   x
            x    C       184       14.869872   25.500566   12.973162   x
            x    C       185        9.494120   25.510852   12.969541   x
            x    C       186       17.571684   25.500532   12.973187   x
            x    C       187       18.917969   27.833494   12.972086   x
            x    C       188       26.987403   27.833743   12.945447   x
            x    C       189       35.064554   27.834119   12.967847   x
            x    C       190       59.258735   27.833903   12.943583   x
            x    C       191        2.764915   27.833944   12.966043   x
[...]
 C   402 -- C   429       -0.07     -0.00      5.39512
 C    34 -- C    68       -0.07     -0.00      5.39513
 C   437 -- C   461       -0.07      0.00      5.39514
 C   322 -- C   356       -0.07     -0.00      5.39516
 C   502 -- C   525       -0.07      0.00      5.39517
 C   323 -- C   349       -0.07      0.00      5.39519
 C   399 -- C   430       -0.07     -0.00      5.39519
 C    38 -- C    60       -0.07      0.00      5.39520
 C   443 -- C   465       -0.07      0.00      5.39520
 C   431 -- C   469       -0.07     -0.00      5.39520
 C   311 -- C   325       -0.07     -0.00      5.39520
 C    36 -- C    66       -0.07     -0.00      5.39522
 C   151 -- C   185       -0.07     -0.00      5.39524
 C   324 -- C   354       -0.07     -0.00      5.39527
 C   462 -- C   496       -0.07      0.00      5.39528
 C   153 -- C   183       -0.07     -0.00      5.39529
 C   467 -- C   491       -0.07      0.00      5.39530
 C   310 -- C   327       -0.07     -0.00      5.39531
 C   500 -- C   527       -0.07      0.00      5.39532
 C   381 -- C   403       -0.07     -0.00      5.39535
 C    35 -- C    61       -0.07      0.00      5.39535
 C   464 -- C   497       -0.07      0.00      5.39538
 C    93 -- C   115       -0.07     -0.00      5.39541
 C    85 -- C   118       -0.07     -0.00      5.39544
 C   373 -- C   406       -0.07     -0.00      5.39546
 C   116 -- C   150       -0.07     -0.00      5.39547
 C   321 -- C   521       -0.07     -0.00      5.39548
 C   470 -- C   492       -0.07      0.00      5.39549
 C   439 -- C   473       -0.07     -0.00      5.39551
 C   441 -- C   471       -0.07     -0.00      5.39552
 C   347 -- C   380       -0.07      0.00      5.39553
 C    33 -- C   233       -0.07     -0.00      5.39555
 C   202 -- C   235       -0.07     -0.00      5.39558
 C   119 -- C   145       -0.07     -0.00      5.39560
 C   407 -- C   433       -0.07     -0.00      5.39561
 C   490 -- C   523       -0.07     -0.00      5.39562
 C   404 -- C   438       -0.07     -0.00      5.39564
 C   210 -- C   232       -0.07     -0.00      5.39568
 C   353 -- C   375       -0.07      0.00      5.39569
 C   345 -- C   379       -0.07      0.00      5.39569
 C   350 -- C   374       -0.07      0.00      5.39571
 C   316 -- C   524       -0.07     -0.00      5.39571
 C   498 -- C   520       -0.07     -0.00      5.39572
 C    28 -- C   236       -0.07     -0.00      5.39573
 C   312 -- C   519       -0.07     -0.00      5.39595
 C   304 -- C   442       -0.07     -0.00      5.39606
 C   313 -- C   516       -0.07     -0.00      5.39607
 C   303 -- C   444       -0.07     -0.00      5.39610
 C   320 -- C   344       -0.07     -0.00      5.39613
 C    59 -- C    92       -0.07      0.00      5.39616
 C   317 -- C   351       -0.07     -0.00      5.39619
 C   383 -- C   410       -0.07     -0.00      5.39621
 C    65 -- C    87       -0.07      0.00      5.39627
 C    57 -- C    91       -0.07      0.00      5.39627
 C   138 -- C   140       -0.07      0.00      5.39630
 C   385 -- C   408       -0.07     -0.00      5.39633
 C    62 -- C    86       -0.07      0.00      5.39633
 C   384 -- C   411       -0.07     -0.00      5.39643
 C   242 -- C   243       -0.07      0.00      5.39644
 C   314 -- C   352       -0.07     -0.00      5.39648
 C   382 -- C   412       -0.07     -0.00      5.39649
 C   315 -- C   346       -0.07     -0.00      5.39657
 C    13 -- C    14       -0.08      0.00      5.39762
 C    40 -- C    41       -0.08      0.00      5.39771
 C   292 -- C   299       -0.07     -0.00      5.39791
 C   293 -- C   298       -0.07     -0.00      5.39802
 C    94 -- C   124       -0.07     -0.00      5.39897
 C    96 -- C   123       -0.07     -0.00      5.39906
 C    27 -- C    58       -0.07     -0.00      5.39913
 C    26 -- C    64       -0.07     -0.00      5.39925
 C    14 -- C    83       -0.08     -0.00      5.40070
 C    13 -- C    79       -0.08     -0.00      5.40073
 C    41 -- C    83       -0.08     -0.00      5.40078
 C    40 -- C    79       -0.08     -0.00      5.40098
 C     2 -- C     3       -0.06      0.00      5.42575
 C     4 -- C    11       -0.06     -0.00      5.43061
 C     5 -- C    10       -0.06     -0.00      5.43069
=============================================================

(P)DSYGVX in subroutine dense_eigensolve returned info=    2
 ifail= 2*0
 iclustr= 557,  591
 gap= 1.45278735268074436E-5,  3.85276186746442084E-5
(P)DSYGVX in subroutine dense_eigensolve returned info=    2
 ifail= 2*0
 iclustr= 557,  591
 gap= 1.45278735267651411E-5,  3.85276186745048952E-5

============== Orbital energy and occupancy information for spin 1 =============

      Total number of orbitals:    2213
        Occupancy sum (kernel):    1068.195076486
   Occupancy sum (eigenvalues):    1068.195076486
                 HOMO-LUMO gap:       0.000198865 Eh
                 Mid-gap level:      -0.161824593 Eh

                        Orbital | Energy (Eh) | Occupancy
                            1    -1.960036390   1.0000000
                        .......   ...........   .........
                         1059    -0.192058774   0.9990608
                         1060    -0.179445526   0.9716919
                         1061    -0.179299323   0.9706055
                         1062    -0.179090067   0.9689188
                         1063    -0.178941783   0.9677137
                         1064    -0.178029456   0.9590975
                         1065    -0.177898514   0.9576979
                         1066    -0.174212006   0.8925428
                         1067    -0.174192219   0.8919935
                         1068    -0.161924026   0.2261626
                        ....... -- gap at 0K -- .........
                         1069    -0.161725161   0.2171201
                         1070    -0.161668547   0.2140273
                         1071    -0.161446652   0.2044731
                         1072    -0.160536132   0.1674395
                         1073    -0.160367372   0.1612567
                         1074    -0.156296966   0.0591733
                         1075    -0.156180816   0.0574878
                         1076    -0.155855271   0.0529733
                         1077    -0.155782217   0.0520123
                         1078    -0.154326107   0.0353028
                        .......   ...........   .........
                         2213     0.714648909   0.0000000

================================================================================

============== Orbital energy and occupancy information for spin 2 =============

      Total number of orbitals:    2213
        Occupancy sum (kernel):    1068.195076529
   Occupancy sum (eigenvalues):    1068.195076529
                 HOMO-LUMO gap:       0.000056614 Eh
                 Mid-gap level:      -0.161696854 Eh

                        Orbital | Energy (Eh) | Occupancy
                            1    -1.960036390   1.0000000
                        .......   ...........   .........
                         1060    -0.179445526   0.9716919
                         1061    -0.179299323   0.9706055
                         1062    -0.179090067   0.9689188
                         1063    -0.178941783   0.9677137
                         1064    -0.178029456   0.9590975
                         1065    -0.177898514   0.9576979
                         1066    -0.174212006   0.8925428
                         1067    -0.174192219   0.8919935
                         1068    -0.161924026   0.2261626
                         1069    -0.161725161   0.2171202
                        ....... -- gap at 0K -- .........
                         1070    -0.161668547   0.2140273
                         1071    -0.161446652   0.2044731
                         1072    -0.160536132   0.1674396
                         1073    -0.160367372   0.1612567
                         1074    -0.156296966   0.0591733
                         1075    -0.156180816   0.0574878
                         1076    -0.155855271   0.0529733
                         1077    -0.155782217   0.0520123
                         1078    -0.154326107   0.0353028
                         1079    -0.153390590   0.0277408
                        .......   ...........   .........
                         2213     0.714648909   0.0000000

================================================================================

===================== Writing canonical molecular orbitals =====================
    Spin 1
| Orbital  Energy (eV)  Norm     |
| HOMO-5   -4.86925368  1.000000 | 
| HOMO-4   -4.84442799  1.000000 | 
| HOMO-3   -4.84086490  1.000000 | 
| HOMO-2   -4.74054989  1.000000 | 
| HOMO-1   -4.74001147  1.000000 | 
| HOMO     -4.40617695  1.000000 | 
| LUMO     -4.40076555  1.000000 | 
| LUMO+1   -4.39922500  1.000000 | 
| LUMO+2   -4.39318694  1.000000 | 
| LUMO+3   -4.36841043  1.000000 | 
| LUMO+4   -4.36381824  1.000000 | 
| LUMO+5   -4.25305684  1.000000 | 
================================================================================

===================== Writing canonical molecular orbitals =====================
    Spin 2
| Orbital  Energy (eV)  Norm     |
| HOMO-5   -4.84442799  1.000000 | 
| HOMO-4   -4.84086490  1.000000 | 
| HOMO-3   -4.74054989  1.000000 | 
| HOMO-2   -4.74001147  1.000000 | 
| HOMO-1   -4.40617695  1.000000 | 
| HOMO     -4.40076555  1.000000 | 
| LUMO     -4.39922500  1.000000 | 
| LUMO+1   -4.39318694  1.000000 | 
| LUMO+2   -4.36841043  1.000000 | 
| LUMO+3   -4.36381824  1.000000 | 
| LUMO+4   -4.25305684  1.000000 | 
| LUMO+5   -4.24989626  1.000000 | 
================================================================================
 
=============== Density of States (DOS) calculation for UP spin ================
Writing "graphite_UP_DOS.txt" ... done
================================================================================
 
============== Density of States (DOS) calculation for DOWN spin ===============
Writing "graphite_DN_DOS.txt" ... done
================================================================================
 
Writing bands to file "graphite.val_bands" ... done

IS: Calculating electrolyte contribution to the atomic forces ...
================================================================================
 
***********************************************************
********** Summary of Forces (values in Eh/a) *************
*                                                         *
* ---------------------- Minimum ------------------------ *
* Atom:       301, |F|min =    0.00000903                 *
* Components:     Fx|min       Fy|min       Fz|min        *
*              -0.00000093   0.00000898  -0.00000002      *
*                                                         *
* ---------------------- Maximum ------------------------ *
* Atom:         1, |F|max =    0.00108791                 *
* Components:     Fx|max       Fy|max       Fz|max        *
*               0.00019318  -0.00008870   0.00106694      *
*                                                         *
* ---------------- Root Mean Square Force --------------- *
*                  |F|rms =    0.00019123                 *
* Components:     Fx|rms       Fy|rms       Fz|rms        *
*               0.00008405   0.00013455   0.00010678      *
***********************************************************
 

                                                      hartree           kcal/mol
IS: NB: Energy of pure electrolyte:         -0.08157555850931         -51.189435

------------------------------ TIMING INFORMATION ------------------------------
AVERAGE TIME:    2014.001s on    128 proc(s)                                    
TOTAL TIME:      2014.006s on    128 proc(s)                                    
================= AVERAGE TIMINGS FROM ALL PROCS (CUMULATIVE) ==================
|| TAG                                    #calls    cpu time   %total  Gflops ||
|| linalg_invert_sym_matrix             :     2        0.00s   0.000%  ------ || (1 procs only)
|| onetep.F90 main loop imbalance       :     1        0.00s   0.000%  ------ ||
|| density_fftbox_interp_mult_imbal     :  2280        0.00s   0.000%  ------ ||
|| sparse_set_to_garbage                :    24        0.00s   0.000%  ------ ||
|| onetep.F90 final imbalance           :     1        0.01s   0.000%  ------ ||
|| vdwcorrection_calculate_forces       :     2        0.01s   0.000%  ------ ||
|| ewald_calculate_forces_realspace     :     2        0.01s   0.000%  ------ ||
|| vdwcorrection_calculate_energy       :     2        0.01s   0.001%  ------ ||
|| basis_extract_function_from_box      :   242        0.02s   0.001%  ------ ||
|| sparse_spam3toblacs_real_fast_imbal  :   204        0.03s   0.001%  ------ ||
|| pseudopotentials_core_density        :     2        0.04s   0.002%  ------ ||
|| pseudopotentials_local_on_grid       :     2        0.04s   0.002%  ------ ||
|| parallel_prepare_fd_halos_alloc      :  9981        0.05s   0.003%  ------ ||
|| sparse_blacstospam3_real_fast_imbal  :   196        0.06s   0.003%  ------ ||
|| restart_hamiltonian_read             :     2        0.08s   0.004%  ------ ||
|| parallel_prepare_fd_halos_request    :  9981        0.09s   0.005%  ------ ||
|| pseudopotentials_nonlocal_mat        :     4        0.15s   0.007%  ------ ||
|| restart_hamiltonian_write            :     3        0.16s   0.008%  ------ ||
|| sparse_spam3toblacs_real_fast_B2     : 26112        0.16s   0.008%  ------ ||
|| pseudo_make_structure_factor         :     2        0.29s   0.014%  ------ ||
|| parallel_prepare_fd_halos_satisfy    :  9981        0.45s   0.022%  ------ ||
|| ngwf_gradient_coeffs                 :     3        0.60s   0.030%  ------ ||
|| restart_kernel_write                 :     5        0.70s   0.035%  ------ ||
|| sparse_init                          :     2        0.97s   0.048%  ------ ||
|| pseudo_local_calculate_forces        :     2        1.00s   0.050%  ------ ||
|| projectors_func_ovlp_box_spam3       :     4        1.17s   0.058%  ------ ||
|| ewald_calculate_energy               :     2        1.23s   0.061%  ------ ||
|| integrals_grad_spam3                 :     2        1.24s   0.061%  ------ ||
|| nonsc_forces_ngwfs_calc              :     2        1.24s   0.061%  ------ ||
|| sparse_embed_hotelling_invert_embed  :     4        1.25s   0.062%  ------ ||
|| smeared_ion_generate_potential_PBC   :     2        1.28s   0.063%  ------ ||
|| density_init_guess_real              :     2        1.32s   0.066%  ------ ||
|| fourier_filter_cell                  :    50        1.37s   0.068% 203.662 ||
|| sparse_trace                         :   768        1.53s   0.076%  ------ ||
|| pseudo_nlcc_calculate_forces         :     2        1.56s   0.077%  ------ ||
|| projectors_func_grad_ovlp_box_spam3  :     6        1.86s   0.093%  ------ ||
|| pseudo_nl_calculate_forces           :     2        2.10s   0.104%  ------ ||
|| projectors_init_fftbox_recip         :    22        2.13s   0.106%  ------ ||
|| function_ops_brappd_ketppd_spam3     :     6        2.42s   0.120%  ------ ||
|| fourier_apply_box_pair               :   260        2.43s   0.121%  1.727k ||
|| energy_and_force_init_cell           :     1        2.53s   0.126%  ------ ||
|| basis_copy_function_to_box           :  3284        2.69s   0.133%  ------ ||
|| restart_ngwfs_tightbox_input         :     2        2.75s   0.137%  ------ ||
|| boltzmann_init_steric_pot            :     2        3.67s   0.182%  ------ ||
|| parallel_prepare_fd_halos_comms_imbal:  9981        3.78s   0.188%  ------ ||
|| ewald_calculate_forces_recipspace    :     2        3.81s   0.189%  ------ ||
|| ewald_calculate_forces               :     2        3.83s   0.190%  ------ ||
|| parallel_prepare_fd_halos_clear      :  9981        4.00s   0.199%  ------ ||
|| integrals_kinetic_spam3              :     4        4.03s   0.200%  ------ ||
|| eigenstates_calculate                :     1        4.11s   0.204%  ------ ||
|| fourier_interpolate_cell             :   114        5.78s   0.287% 109.924 ||
|| parallel_prepare_fd_halos_comms_wait :  9981        6.75s   0.335%  ------ ||
|| sparse_product                       :   509        6.85s   0.340%  ------ ||
|| sparse_spam3toblacs_real_fast_B1     : 26112        7.25s   0.360%  ------ ||
|| sparse_spam3toblacs_real_fast        :   204        7.78s   0.386%  ------ ||
|| fourier_apply_cell_backward          :   490        7.91s   0.393% 174.169 ||
|| projectors_gradient_batch            :    12        8.72s   0.433%  ------ ||
|| basis_dot_function_with_box          : 536.9k       9.90s   0.492%  ------ ||
|| cell_grid_extract_box_real           :  1000       11.67s   0.580%  ------ ||
|| sparse_blacstospam3_real_fast        :   196       13.31s   0.661%  ------ ||
|| restart_ngwfs_tightbox_output        :     2       14.76s   0.733%  ------ ||
|| parallel_prepare_fd_halos            :  9981       15.19s   0.754%  ------ ||
|| xc_energy_potential                  :    59       17.48s   0.868%  ------ ||
|| cell_grid_deposit_box_real           :  2780       26.22s   1.302%  ------ ||
|| properties_calculate                 :     1       28.24s   1.402%  ------ ||
|| dense_eigensolve                     :    98       28.53s   1.416%  ------ ||
|| basis_add_function_to_box            : 1.587M      31.05s   1.542%  ------ ||
|| fourier_apply_cell_forward           :   482       35.13s   1.744%  38.585 ||
|| edft_diag_ngwf_ham                   :    96       35.15s   1.745%  ------ ||
|| ngwf_gradient_build_batch            :    12       36.98s   1.836%  ------ ||
|| finite_difference_derivative         :  9981       48.10s   2.388%  ------ ||
|| integrals_locpot_mat_els_batch       :    88       48.73s   2.419%  ------ ||
|| edft_apply_smearing_operator         :    48       54.26s   2.694%  ------ ||
|| ngwf_gradient_batch                  :    12       60.59s   3.008%  ------ ||
|| ngwf_gradient_lnv                    :     3       63.03s   3.130%  ------ ||
|| hamiltonian_energy_components        :     2       67.50s   3.351%  ------ ||
|| density_batch_row_sums               :   228       80.21s   3.982%  ------ ||
|| implicit_solvent_boltzmann_forces    :     2       96.45s   4.789%  ------ ||
|| density_fftbox_deposit_to_cell       :  2280       97.25s   4.828%  ------ ||
|| potential_apply_to_ngwf_batch        :    88      157.24s   7.807%  ------ ||
|| smeared_ion_force_correction         :     4      189.37s   9.403%  ------ ||
|| implicit_solvent_soft_sphere_forces  :     2      201.44s  10.002%  ------ ||
|| integrals_locpot_dbl_grid            :    44      206.18s  10.237%  ------ ||
|| dl_mg_solver_calls                   :    57      210.37s  10.445%  ------ ||
|| multigrid_calculate_hartree          :    57      216.24s  10.737%  ------ ||
|| fourier_apply_box                    :  6381      223.39s  11.092%  2.206k ||
|| density_fftbox_interpolate_multiply  :  2280      260.28s  12.924%  ------ ||
|| density_batch_interp_deposit         :   228      462.52s  22.965%  ------ ||
|| forces_calculate                     :     2      516.92s  25.667%  ------ ||
|| density_on_dbl_grid                  :   114      560.70s  27.840%  ------ ||
|| hamiltonian_lhxc_calculate           :    53      779.68s  38.713%  ------ ||
|| edft_calculate                       :     3      949.94s  47.167%  ------ ||
|| ngwf_cg_optimise                     :     2     1118.55s  55.539%  ------ ||
|| energy_and_forces                    :     2     2005.54s  99.580%  ------ ||
|| total_time                           :     1     2014.00s 100.000%  ------ ||
================================================================================
Overhead of generating timer report: 
- 0 ms averaging over threads,
- 12 ms ensuring consistency across MPI ranks,
- 1 ms printing in order.

Job completed: 31-10-2023 23:22 (+0000)

