1151      
Geometry optimisation iteration:    36 | Lattice="34.1692 0.0000 0.0000  0.0000 39.4552 0.0000  0.0000 0.0000 100.0000"
C    22.108367    1.164008    3.377576
C    26.379708    1.164151    3.357864
C    30.651077    1.164263    3.351397
C     6.447281    1.164159    3.355447
C    10.718313    1.164013    3.367326
C     2.176499    1.164249    3.352924
C    14.989463    1.163991    3.385138
C    19.260811    1.164060    3.387761
C    23.532151    1.164081    3.370078
C    27.803612    1.164178    3.353548
C    32.074887    1.164323    3.351239
C     0.752816    1.164268    3.353059
C     5.023741    1.164135    3.354601
C     9.294776    1.164100    3.362595
C    13.565898    1.164088    3.380244
C    17.837121    1.164054    3.389960
C    15.701451    2.397188    3.381817
C    19.972659    2.397230    3.379798
C    24.243915    2.397154    3.358738
C     4.311924    2.397238    3.346036
C    28.515347    2.397264    3.345325
C     0.041101    2.397297    3.346001
C     8.582796    2.397222    3.352072
C    12.853949    2.397210    3.370448
C    17.125214    2.397241    3.383595
C    21.396511    2.397218    3.373456
C    25.667813    2.397257    3.351815
C    29.939274    2.397265    3.344225
C    32.786573    2.397313    3.345938
C     2.888270    2.397272    3.346639
C     7.159273    2.397229    3.349240
C    11.430352    2.397234    3.364039
C    13.565883    3.630360    3.378666
C    17.837099    3.630372    3.388893
C     2.176463    3.630353    3.340412
C    22.108323    3.630373    3.372583
C    26.379648    3.630287    3.347239
C     6.447281    3.630312    3.344802
C    10.718288    3.630407    3.362617
C    14.989479    3.630353    3.384265
C    19.260817    3.630408    3.385889
C    23.532162    3.630375    3.362893
C    27.803525    3.630429    3.342007
C    30.651001    3.630311    3.339403
C     0.752762    3.630318    3.340779
C     5.023741    3.630362    3.342777
C    32.074837    3.630344    3.339233
C     9.294790    3.630334    3.355788
C     0.040995    4.863111    3.335030
C    11.430337    4.863249    3.379549
C    15.701469    4.863176    3.401323
C    19.972694    4.863199    3.397279
C    24.243982    4.863218    3.366952
C     4.311837    4.863238    3.340267
C     8.582743    4.863221    3.359823
C    12.853822    4.863220    3.388324
C    17.125081    4.863137    3.402929
C    21.396453    4.863305    3.388817
C    25.667771    4.863246    3.355363
C    28.515377    4.863154    3.340374
C    29.939067    4.863183    3.336298
C    32.786579    4.863107    3.335158
C     2.888324    4.863179    3.338031
C     7.159300    4.863225    3.352038
C     9.294664    6.095843    3.381080
C    13.565736    6.095714    3.412918
C    17.837069    6.095661    3.422932
C    22.108388    6.095831    3.402140
C    32.074663    6.095825    3.331871
C     2.176423    6.095837    3.335154
C     6.447149    6.095927    3.356826
C    10.718036    6.095773    3.392765
C    14.989281    6.095746    3.418828
C    19.260772    6.095722    3.418971
C    23.532143    6.095946    3.388540
C    26.379665    6.095852    3.360404
C    27.803413    6.095904    3.348133
C    30.650915    6.095789    3.334875
C     0.752775    6.095779    3.333018
C     5.023697    6.095875    3.347729
C     7.159033    7.328508    3.378686
C    11.429853    7.328120    3.420757
C    15.701169    7.328061    3.442304
C    19.972737    7.328132    3.436764
C    29.938971    7.328581    3.340360
C     0.040976    7.328552    3.330885
C     4.311819    7.328556    3.350606
C     8.582419    7.328399    3.393632
C    12.853389    7.328155    3.430230
C    17.124926    7.328141    3.443167
C    21.396536    7.328272    3.427412
C    25.667727    7.328568    3.382618
C    24.244018    7.328391    3.400219
C    28.515239    7.328516    3.351664
C    32.786464    7.328536    3.331202
C     2.888246    7.328573    3.341253
C     5.023537    8.561364    3.370755
C     9.294127    8.560880    3.422393
C    13.565207    8.560652    3.453957
C    17.836963    8.560691    3.460168
C    27.803272    8.561434    3.371390
C    32.074538    8.561456    3.334870
C     2.176357    8.561480    3.342643
C     6.446898    8.561274    3.388078
C    10.717529    8.560776    3.435566
C    23.532298    8.561080    3.426541
C    14.988935    8.560658    3.458293
C    19.260865    8.560834    3.456242
C    22.108460    8.560848    3.440819
C    26.379509    8.561270    3.390864
C    30.650723    8.561412    3.342712
C     0.752683    8.561472    3.335740
C     7.158399    9.794022    3.416400
C    11.429198    9.793508    3.458639
C    15.700731    9.793408    3.472087
C    25.667797    9.794237    3.416979
C    29.938844    9.794527    3.358595
C     0.040907    9.794566    3.339450
C     4.311613    9.794481    3.376945
C    21.396656    9.793827    3.458804
C     8.581854    9.793786    3.433343
C    12.852875    9.793514    3.465539
C    17.124809    9.793591    3.471637
C    19.972706    9.793639    3.466086
C    24.244043    9.793915    3.435365
C    28.515048    9.794405    3.376831
C    32.786282    9.794511    3.339760
C     2.888008    9.794546    3.359798
C     5.023027   11.027487    3.404110
C     9.293466   11.026710    3.456093
C    13.564592   11.026394    3.476016
C    23.532316   11.027119    3.453020
C    27.803250   11.027548    3.401965
C    19.260826   11.026712    3.472036
C    32.074396   11.027752    3.352191
C     2.176242   11.027751    3.365106
C     6.446433   11.027228    3.423946
C    10.717013   11.026558    3.466108
C    14.988542   11.026540    3.476594
C    17.836653   11.026583    3.474338
C    22.108377   11.026853    3.463015
C    26.379485   11.027257    3.422698
C    30.650500   11.027663    3.364313
C     0.752521   11.027736    3.353282
C    32.786059   12.260812    3.362692
C     2.887756   12.260663    3.389675
C     7.157907   12.260064    3.447346
C    21.396632   12.259915    3.465440
C    11.428701   12.259391    3.474594
C    17.124488   12.259710    3.468534
C    25.667743   12.260358    3.441726
C    29.938631   12.260706    3.386909
C     0.040672   12.260820    3.362734
C     4.311196   12.260538    3.409585
C     8.581331   12.259815    3.460291
C    12.852422   12.259427    3.475805
C    15.700335   12.259542    3.471529
C    19.972626   12.259668    3.467368
C    24.244010   12.260050    3.454261
C    28.514988   12.260502    3.406669
C    30.650488   13.493499    3.393069
C     0.752307   13.493607    3.382079
C    19.260535   13.492727    3.452635
C     5.022618   13.493201    3.433934
C     9.292953   13.492515    3.469140
C    23.532307   13.493018    3.457066
C    27.803209   13.493397    3.427504
C    32.074184   13.493657    3.380243
C     2.175928   13.493517    3.395770
C     6.445967   13.493029    3.449695
C    10.716481   13.492356    3.471327
C    13.564260   13.492332    3.465456
C    17.836293   13.492632    3.451156
C    22.108497   13.492700    3.458343
C    14.988183   13.492592    3.459304
C    26.379598   13.493122    3.442639
C    17.124163   14.725565    3.424909
C    28.515096   14.726157    3.429133
C    32.786033   14.726345    3.391329
C     2.887435   14.726228    3.418844
C     7.157406   14.725746    3.461573
C    21.396484   14.725629    3.441599
C    25.667802   14.726067    3.449698
C    29.938665   14.726310    3.413220
C     0.040513   14.726402    3.392083
C     4.310895   14.726101    3.435700
C     8.580868   14.725501    3.466430
C    11.428345   14.725255    3.460355
C    12.852176   14.725430    3.451725
C    15.700045   14.725329    3.430911
C    19.972329   14.725590    3.432733
C    24.244167   14.725767    3.452197
C    26.379629   15.959039    3.447909
C    30.650475   15.959264    3.416159
C     0.752128   15.959250    3.408580
C     5.022248   15.959043    3.451101
C    14.987987   15.958342    3.405813
C    19.260353   15.958528    3.399135
C    23.532474   15.958827    3.441490
C    27.803363   15.959243    3.440853
C    32.074266   15.959262    3.405392
C     2.175726   15.959187    3.420941
C     6.445553   15.958846    3.460018
C     9.292553   15.958382    3.461463
C    10.716170   15.958499    3.451979
C    13.564015   15.958239    3.421812
C    17.836014   15.958190    3.391316
C    22.108417   15.958679    3.429086
C    24.244349   17.192026    3.438345
C    28.515233   17.192335    3.439529
C    32.786053   17.192415    3.411260
C     2.887199   17.192351    3.436373
C    12.851764   17.191596    3.407869
C    17.123972   17.191345    3.358279
C    21.396535   17.191833    3.400937
C    25.668060   17.192264    3.445809
C    29.938876   17.192483    3.428289
C     0.040665   17.192445    3.412480
C     4.310698   17.192311    3.449153
C     8.580525   17.191914    3.459371
C     7.156953   17.192033    3.462939
C    11.427871   17.191585    3.429802
C    15.699567   17.191243    3.366403
C    19.972291   17.191575    3.378450
C    22.108499   18.425336    3.399620
C    26.379841   18.425580    3.445480
C    30.650543   18.425730    3.425768
C     0.752037   18.425766    3.421151
C    10.715880   18.425256    3.430058
C    14.987671   18.425035    3.350614
C    19.260480   18.424971    3.346904
C    23.532672   18.425469    3.423426
C    27.803620   18.425725    3.443861
C     6.445266   18.425587    3.461902
C    32.074353   18.425793    3.416884
C     2.175642   18.425730    3.432442
C     5.021949   18.425676    3.457388
C     9.292233   18.425291    3.449883
C    13.563472   18.424984    3.374742
C    17.835960   18.424792    3.333282
C    24.244479   19.658867    3.429130
C    28.515463   19.658960    3.440422
C    32.786028   19.659039    3.414865
C     8.580318   19.658893    3.454982
C    12.851535   19.658688    3.377338
C    17.123804   19.658459    3.318702
C    21.396546   19.658741    3.377799
C     4.310464   19.658988    3.452733
C    25.668288   19.658940    3.441554
C    29.939107   19.659029    3.430407
C     0.040595   19.659030    3.416544
C     2.886980   19.659044    3.440620
C     7.156718   19.658904    3.462526
C    11.427745   19.658571    3.409937
C    15.699427   19.658430    3.326409
C    19.972347   19.658553    3.347875
C     9.999425    4.858165    6.636348
C     7.151344    4.858537    6.625007
C     7.862960    6.089796    6.636682
C     9.285856    6.088643    6.644632
C    27.099718   14.718730    6.702670
C    24.258787   14.714583    6.706036
C    24.970929   15.950019    6.699282
C    26.392329   15.951384    6.705103
C     7.863635    3.627454    6.623954
C     9.286814    3.627183    6.626345
C    11.421407    7.318442    6.681403
C     9.998106    7.319452    6.669903
C     7.150194    7.320997    6.643807
C     7.861416    8.552485    6.669080
C     9.284340    8.550280    6.685528
C    24.966135   13.482430    6.714792
C    26.388107   13.484729    6.703700
C    28.524559   17.186255    6.700301
C    27.103124   17.185642    6.704473
C    24.265422   17.182056    6.680331
C    24.975415   18.419112    6.682305
C    26.396221   18.420175    6.698422
C     7.863711    1.164472    6.627837
C     9.287184    1.164289    6.629043
C    12.135790    1.164067    6.636056
C     5.016894    1.164136    6.625891
C    33.494242    1.164369    6.625862
C     3.593767    1.164242    6.626516
C    16.409095    1.164220    6.644857
C     0.748330    1.164120    6.625689
C    13.559503    1.164218    6.638900
C    17.832911    1.163892    6.644563
C    20.682676    1.163816    6.641052
C    29.225518    1.164065    6.625041
C    30.648782    1.163911    6.624539
C    24.955202    1.163541    6.629940
C    22.106390    1.163739    6.636739
C    26.378475    1.163993    6.626770
C     9.999921    2.395838    6.627394
C     7.151498    2.395939    6.622852
C     5.728637    2.395901    6.622793
C    14.272940    2.395471    6.637635
C     2.882135    2.395936    6.622041
C    11.423359    2.395398    6.629901
C    31.360111    2.395974    6.621652
C     1.459372    2.396215    6.622645
C    18.545954    2.395123    6.640299
C    32.782947    2.396003    6.621556
C    15.696597    2.395143    6.639250
C    22.818839    2.395363    6.630940
C    27.090568    2.395630    6.622440
C    19.969950    2.395311    6.637470
C    28.513787    2.396205    6.620994
C    24.242835    2.395494    6.626793
C    12.135982    3.626900    6.635663
C    33.494441    3.627822    6.618761
C     3.593467    3.627941    6.619681
C    16.409541    3.625976    6.645499
C    20.682953    3.626665    6.640013
C    30.648998    3.628087    6.617822
C     0.748272    3.627878    6.618520
C     5.016649    3.627711    6.619841
C    13.559497    3.626489    6.639327
C    17.833032    3.625993    6.644813
C    29.225991    3.628001    6.618700
C    24.955504    3.627543    6.625851
C    22.106617    3.627235    6.634753
C    26.378943    3.627682    6.621821
C    27.091205    4.859247    6.622432
C    31.360581    4.859893    6.615818
C     1.459602    4.859711    6.616558
C    14.272332    4.857265    6.654549
C    18.546379    4.856841    6.657761
C    22.819684    4.858281    6.641013
C    28.514327    4.859766    6.618386
C    32.783400    4.859737    6.615149
C     2.882316    4.859502    6.617085
C    11.422693    4.857608    6.642060
C    15.696414    4.856479    6.657352
C    19.970768    4.857235    6.653165
C    24.243544    4.859330    6.633284
C     5.728528    4.859602    6.622050
C    24.956795    6.090435    6.639834
C    29.226859    6.091276    6.618794
C    33.494944    6.091617    6.613845
C    16.409793    6.087126    6.679349
C    20.684470    6.088063    6.668600
C    26.379960    6.091314    6.630359
C    30.649606    6.091759    6.615175
C     0.748528    6.091364    6.614065
C    17.833722    6.086932    6.678149
C    22.108340    6.088946    6.659146
C     3.593541    6.091218    6.619283
C    12.135172    6.088152    6.663627
C    13.558512    6.087532    6.670665
C     5.016277    6.090777    6.622905
C    24.245702    7.321406    6.659324
C    22.821896    7.320130    6.673262
C    27.092677    7.322981    6.635181
C    31.361551    7.323220    6.615534
C    18.547937    7.317204    6.699815
C    28.515513    7.323348    6.625471
C    32.783803    7.323310    6.613259
C    15.695989    7.316930    6.701952
C    19.972440    7.318195    6.693118
C     1.459692    7.323061    6.615970
C    14.271759    7.317817    6.698873
C     2.882010    7.322628    6.619313
C     5.727595    7.322138    6.634060
C    24.959090    8.553038    6.669776
C    29.227902    8.555391    6.628644
C    22.111606    8.550506    6.699071
C    26.382277    8.554592    6.652969
C    20.687434    8.548620    6.710010
C    33.495277    8.555052    6.615330
C    16.409684    8.546147    6.723613
C    30.650683    8.555286    6.620548
C    17.835300    8.545573    6.720208
C     3.592921    8.554607    6.628709
C     0.748719    8.554940    6.616382
C    13.556830    8.547472    6.720671
C    12.133140    8.548736    6.713652
C     5.015522    8.553674    6.638494
C    27.094538    9.786702    6.659592
C    24.249019    9.784630    6.695328
C    22.825179    9.782467    6.711095
C    28.517062    9.787674    6.643183
C    18.553066    9.773329    6.729421
C    31.362080    9.787781    6.623674
C    19.977245    9.777456    6.725608
C    32.784518    9.787574    6.619109
C    15.693492    9.772988    6.738181
C     1.459795    9.787281    6.623876
C    14.268986    9.777926    6.740985
C     2.881983    9.786966    6.631374
C     5.726584    9.785762    6.660439
C     9.995879    9.781006    6.719404
C    11.418885    9.779087    6.733095
C     7.148675    9.784092    6.679421
C    24.962099   11.017692    6.702446
C    26.384905   11.018904    6.682804
C    29.229215   11.020424    6.647900
C    22.116221   11.012736    6.725714
C    16.407845   11.004624    6.727344
C    20.692174   11.009806    6.730092
C    33.495656   11.020386    6.625032
C    17.840335   11.004204    6.717689
C    30.651719   11.020713    6.634836
C     0.749010   11.020129    6.627201
C     3.592446   11.019414    6.648782
C    12.131072   11.009305    6.753517
C    13.554679   11.008943    6.750509
C     7.858988   11.015479    6.710988
C     5.014615   11.018379    6.665935
C     9.280930   11.011157    6.731594
C    27.096799   12.252229    6.686933
C    24.253366   12.249154    6.718283
C    22.830511   12.244696    6.726595
C    31.363044   12.253370    6.639912
C    19.983147   12.238301    6.717689
C    28.519332   12.252914    6.667561
C    14.265660   12.241165    6.738814
C    18.554861   12.240511    6.697576
C     1.459462   12.252760    6.640294
C    15.694551   12.239867    6.709937
C    32.785166   12.253179    6.632942
C     5.724773   12.250904    6.692556
C     9.991999   12.242529    6.747368
C     2.881242   12.252088    6.652393
C    11.416373   12.240716    6.751206
C     7.146301   12.248095    6.715335
C    29.230992   13.486092    6.671263
C    16.409420   13.474746    6.664366
C    20.696623   13.474472    6.690963
C    33.496108   13.485811    6.641895
C     3.591430   13.484859    6.674001
C    13.557307   13.475861    6.709680
C    17.838906   13.474815    6.658691
C    22.123701   13.476346    6.711283
C    30.653226   13.486098    6.655318
C     0.749175   13.485680    6.645254
C    12.129126   13.476821    6.719627
C     7.855088   13.480994    6.731696
C     5.012963   13.483886    6.693588
C     9.276950   13.476616    6.738220
C     9.989373   14.711128    6.706009
C    14.267467   14.713856    6.635092
C    18.553045   14.713007    6.634742
C    31.363919   14.719404    6.660187
C     1.459443   14.718716    6.661311
C     5.722742   14.716712    6.710424
C    11.415301   14.713631    6.659014
C    15.695479   14.712871    6.642466
C    19.982254   14.709377    6.633821
C    28.521396   14.719165    6.688945
C    32.785977   14.719089    6.651912
C     2.880776   14.718206    6.675598
C     7.142761   14.714479    6.720701
C    22.838548   14.710932    6.694349
C     7.850989   15.947672    6.709453
C    12.130891   15.948027    6.641071
C    16.413193   15.947203    6.590657
C    33.496307   15.952753    6.660778
C     3.590050   15.951752    6.693803
C     9.269547   15.944918    6.689504
C    13.552916   15.948426    6.627211
C    17.840460   15.944839    6.561492
C     0.749200   15.952287    6.664878
C     5.010447   15.950251    6.706989
C    20.698121   15.943045    6.612728
C    29.232958   15.952630    6.689889
C    30.654891   15.952844    6.675242
C    22.127249   15.942271    6.647207
C     7.138452   17.183239    6.707053
C     5.718870   17.184950    6.714010
C     9.983396   17.176573    6.636747
C    14.269266   17.182029    6.591119
C     1.458767   17.186274    6.678462
C    11.412488   17.178607    6.625585
C    15.697461   17.182073    6.536361
C    32.787070   17.186616    6.668330
C     2.879696   17.185835    6.692196
C    18.552860   17.181999    6.522770
C    31.365440   17.186590    6.676659
C    19.983017   17.181101    6.555840
C    22.842756   17.180782    6.650242
C     7.845023   18.417145    6.706409
C    12.125560   18.416405    6.605314
C     5.007712   18.419906    6.716427
C     9.265796   18.414973    6.681131
C     3.588074   18.420549    6.705850
C    16.410784   18.415647    6.537439
C    33.496438   18.421021    6.672108
C    13.554032   18.416628    6.572126
C     0.749063   18.420723    6.676627
C    20.697590   18.415213    6.566588
C    17.840795   18.414619    6.499832
C    30.656896   18.421070    6.686110
C    29.235108   18.421046    6.698221
C    22.126945   18.417163    6.620784
C     9.981138   19.651357    6.693654
C     7.134436   19.653577    6.721630
C     5.716480   19.655066    6.725943
C    11.409189   19.652918    6.640977
C     1.458319   19.655732    6.684183
C    14.267511   19.655350    6.576150
C     2.878762   19.655198    6.700049
C    15.699612   19.653136    6.559292
C    32.787541   19.655627    6.672653
C    18.554961   19.652716    6.539150
C    31.366057   19.655848    6.680958
C    19.983180   19.654654    6.562469
C    22.843318   19.655544    6.625347
C    27.106526   19.654579    6.701330
C    28.527011   19.655600    6.701681
C    24.268490   19.650979    6.664494
C    22.108532   20.891976    3.392821
C    26.380124   20.891993    3.444526
C    30.650751   20.892070    3.421865
C     6.445089   20.892119    3.463123
C    10.715816   20.892087    3.424329
C     2.175537   20.892144    3.430280
C    14.987493   20.891962    3.330893
C    19.260367   20.892011    3.333176
C    23.532586   20.892037    3.419541
C    27.803820   20.892118    3.442251
C    32.074408   20.892099    3.412286
C     0.752018   20.892095    3.417475
C     5.021803   20.892160    3.458128
C     9.292233   20.892047    3.448261
C    13.563390   20.892048    3.357410
C    17.836054   20.891887    3.316664
C    15.699386   22.125425    3.324827
C    19.972391   22.125199    3.353445
C    24.244503   22.125034    3.434040
C     4.310357   22.125091    3.450338
C    28.515540   22.125070    3.436084
C     0.040519   22.124995    3.405198
C     8.580295   22.125060    3.459053
C    12.851476   22.125334    3.378737
C    17.123907   22.125351    3.319173
C    21.396511   22.125220    3.384219
C    25.668360   22.125005    3.444549
C    29.939081   22.125050    3.422583
C    32.786029   22.124967    3.402931
C     2.886988   22.125048    3.434777
C     7.156727   22.125066    3.465268
C    11.427781   22.125294    3.412962
C    13.563468   23.358682    3.372552
C    17.836099   23.358707    3.334373
C     2.175668   23.357972    3.418815
C    22.108405   23.358226    3.410151
C    26.380125   23.358033    3.447581
C     6.445209   23.358050    3.465508
C    10.715990   23.358376    3.437064
C    14.987534   23.358730    3.344994
C    19.260371   23.358511    3.353610
C    23.532432   23.358134    3.432998
C    27.803790   23.357994    3.439167
C    30.650684   23.358010    3.408395
C     0.752089   23.358002    3.402039
C     5.021881   23.358050    3.456184
C    32.074389   23.357929    3.395805
C     9.292316   23.358263    3.457820
C     0.040659   24.591107    3.385782
C    11.428056   24.591836    3.435671
C    15.699656   24.592289    3.353996
C    19.972253   24.591740    3.385386
C    24.244248   24.591421    3.447986
C     4.310570   24.591214    3.444966
C     8.580505   24.591468    3.469834
C    12.851834   24.591789    3.405468
C    17.124068   24.592096    3.349777
C    21.396394   24.591541    3.411714
C    25.668190   24.591260    3.450675
C    28.515367   24.591193    3.428371
C    29.938974   24.591162    3.408920
C    32.786069   24.591057    3.382758
C     2.887210   24.591159    3.423675
C     7.156949   24.591349    3.470709
C     9.292359   25.825145    3.474023
C    13.563731   25.825622    3.409413
C    17.836011   25.825503    3.378145
C    22.108298   25.824901    3.437666
C    32.074412   25.824398    3.375945
C     2.175940   25.824500    3.404537
C     6.445527   25.824753    3.468450
C    10.716177   25.825099    3.460747
C    14.987842   25.825565    3.385693
C    19.260413   25.825207    3.395168
C    23.532441   25.824821    3.450652
C    26.379853   25.824734    3.448088
C    27.803600   25.824509    3.432885
C    30.650588   25.824465    3.391365
C     0.752336   25.824420    3.383497
C     5.022111   25.824628    3.453119
C     7.157286   27.058203    3.475829
C    11.428198   27.058909    3.464164
C    15.699894   27.059101    3.404259
C    19.972323   27.058530    3.427523
C    29.938759   27.057711    3.394659
C     0.040754   27.057674    3.368146
C     4.310872   27.057939    3.438614
C     8.580760   27.058417    3.481907
C    12.852065   27.058863    3.442709
C    17.124235   27.058861    3.401722
C    21.396526   27.058299    3.443805
C    25.667993   27.057963    3.452463
C    24.244181   27.058213    3.458409
C    28.515124   27.057878    3.418369
C    32.786096   27.057714    3.364567
C     2.887554   27.057846    3.412306
C     5.022559   28.291124    3.448117
C     9.292785   28.291756    3.486278
C    13.564139   28.292223    3.451195
C    17.836238   28.291980    3.432172
C    27.803275   28.290899    3.425160
C    32.074262   28.290832    3.362111
C     2.176111   28.290937    3.393053
C     6.445892   28.291292    3.468215
C    10.716441   28.291948    3.481357
C    23.532341   28.291238    3.463116
C    14.988082   28.292025    3.437116
C    19.260414   28.291641    3.442162
C    22.108446   28.291535    3.461638
C    26.379711   28.291126    3.445120
C    30.650539   28.290843    3.378364
C     0.752548   28.290874    3.370402
C     7.157717   29.524280    3.473783
C    11.428634   29.525029    3.483323
C    15.700349   29.524917    3.456870
C    25.667936   29.523879    3.450999
C    29.938674   29.523682    3.385705
C     0.040715   29.523782    3.359762
C     4.311065   29.523922    3.430491
C    21.396597   29.524288    3.469442
C     8.581174   29.524514    3.484717
C    12.852262   29.524895    3.473671
C    17.124393   29.524659    3.454949
C    19.972562   29.524499    3.465496
C    24.244179   29.524224    3.463572
C    28.515056   29.523849    3.410196
C    32.786151   29.523757    3.356377
C     2.887757   29.523851    3.403086
C     5.022928   30.756741    3.438361
C     9.293284   30.757444    3.484306
C    13.564430   30.757703    3.479680
C    23.532435   30.756925    3.468400
C    27.803288   30.756544    3.418614
C    19.260706   30.757291    3.476502
C    32.074295   30.756480    3.359035
C     2.176161   30.756570    3.386195
C     6.446297   30.756919    3.459404
C    10.716868   30.757656    3.486679
C    14.988409   30.757631    3.475489
C    17.836533   30.757462    3.474530
C    22.108567   30.757250    3.475579
C    26.379683   30.756842    3.440478
C    30.650581   30.756594    3.373731
C     0.752643   30.756603    3.366283
C    32.786216   31.989465    3.358324
C     2.887990   31.989474    3.395713
C     7.158241   31.989811    3.460148
C    21.396788   31.989951    3.478872
C    11.429032   31.990369    3.483373
C    17.124657   31.990221    3.482891
C    25.667981   31.989515    3.445450
C    29.938776   31.989410    3.382738
C     0.040829   31.989442    3.360813
C     4.311405   31.989537    3.419054
C     8.581643   31.990056    3.472549
C    12.852613   31.990454    3.483598
C    15.700703   31.990378    3.482873
C    19.972866   31.990229    3.482816
C    24.244237   31.989858    3.461400
C    28.515061   31.989543    3.404507
C    30.650620   33.222593    3.374285
C     0.752704   33.222555    3.368216
C    19.260824   33.223011    3.482044
C     5.023259   33.222621    3.422695
C     9.293748   33.223025    3.466565
C    23.532463   33.222666    3.461756
C    27.803420   33.222469    3.410965
C    32.074478   33.222542    3.363029
C     2.176357   33.222560    3.382396
C     6.446727   33.222676    3.440734
C    10.717315   33.223109    3.473019
C    13.564928   33.223268    3.480017
C    17.836883   33.223132    3.483603
C    22.108592   33.222976    3.472482
C    14.988729   33.223163    3.481570
C    26.379648   33.222651    3.431276
C    17.124930   34.455978    3.476006
C    28.515206   34.455712    3.396769
C    32.786370   34.455733    3.363901
C     2.888130   34.455661    3.388119
C     7.158642   34.455805    3.435812
C    21.396747   34.455853    3.467135
C    25.668076   34.455654    3.431286
C    29.939055   34.455599    3.380473
C     0.040961   34.455679    3.365346
C     4.311645   34.455650    3.403930
C     8.582138   34.455906    3.447190
C    11.429534   34.456065    3.463286
C    12.853184   34.456071    3.467886
C    15.701041   34.456009    3.474924
C    19.972854   34.456009    3.473328
C    24.244210   34.455832    3.446938
C    26.379765   35.688706    3.412862
C    30.650910   35.688664    3.373015
C     0.752787   35.688678    3.369491
C     5.023560   35.688624    3.401792
C    14.989059   35.688724    3.459159
C    19.260796   35.688719    3.461256
C    23.532350   35.688597    3.439598
C    27.803510   35.688601    3.397297
C    32.074638   35.688654    3.366205
C     2.176379   35.688639    3.377359
C     6.447011   35.688665    3.413923
C     9.294267   35.688775    3.435492
C    10.717773   35.688838    3.442909
C    13.565422   35.688805    3.455392
C    17.837064   35.688810    3.463423
C    22.108574   35.688760    3.450380
C    24.244180   36.921233    3.417859
C    28.515338   36.921372    3.382340
C    32.786494   36.921385    3.364857
C     2.888240   36.921333    3.377056
C    12.853506   36.921238    3.432985
C    17.124967   36.921263    3.444717
C    21.396549   36.921233    3.436009
C    25.667955   36.921228    3.405461
C    29.939126   36.921344    3.372896
C     0.040923   36.921377    3.365568
C     4.311745   36.921312    3.384843
C     8.582486   36.921257    3.411568
C     7.159112   36.921263    3.403470
C    11.430080   36.921366    3.427106
C    15.701393   36.921314    3.443108
C    19.972832   36.921302    3.442285
C    22.108468   38.153742    3.412624
C    26.379850   38.153834    3.384989
C    30.651072   38.154055    3.364757
C     0.752826   38.153988    3.364309
C    10.718150   38.153727    3.402017
C    14.989342   38.153701    3.419894
C    19.260717   38.153740    3.422886
C    23.532208   38.153698    3.403675
C    27.803601   38.153882    3.375966
C     6.447218   38.153782    3.382672
C    32.074781   38.153989    3.361986
C     2.176432   38.153980    3.367140
C     5.023706   38.153872    3.377264
C     9.294672   38.153733    3.395860
C    13.565783   38.153742    3.415268
C    17.837082   38.153749    3.424951
C    24.244007   39.386355    3.381373
C    28.515437   39.386544    3.362298
C    32.786545   39.386681    3.357701
C     8.582686   39.386368    3.374094
C    12.853836   39.386333    3.391713
C    17.125075   39.386322    3.404239
C    21.396497   39.386340    3.395843
C     4.311760   39.386507    3.363275
C    25.667901   39.386415    3.373447
C    29.939211   39.386632    3.358764
C     0.040986   39.386623    3.357991
C     2.888266   39.386593    3.361663
C     7.159222   39.386418    3.370131