 +---------------------------------------------------------------+
 |                                                               |
 |        ####### #     # ####### ####### ####### ######         |
 |        #     # ##    # #          #    #       #     #        |
 |        #     # # #   # #          #    #       #     #        |
 |        #     # #  #  # #####      #    #####   ######         |
 |        #     # #   # # #          #    #       #              |
 |        #     # #    ## #          #    #       #              |
 |        ####### #     # #######    #    ####### #              |
 |                                                               |
 |        Linear-Scaling Ab Initio Total Energy Program          |
 |                                                               |
 |          Release for academic collaborators of ODG            |
 |                                             Version 6.1.59    |
 | Remote: https://github.com/onetep-devel/onetep.git            |
 | Local branch: master                                          |
 | Commit ID: 3df6b8ca88fa1735659d3248d54c94b50edec21b           |
 | Date: Thu Oct 5 13:49:52 2023 +0200                           |
 | Working tree clean                                            |
 |                                                               |
 +---------------------------------------------------------------+
 |                                                               |
 |  Authors:                                                     |
 |  Jacek Dziedzic, Peter D. Haynes, Nicholas D. M. Hine,        |
 |  Arash A. Mostofi, Mike C. Payne and Chris-Kriton Skylaris    |
 |                                                               |
 |  Contributors:                                                |
 |  J. Aarons, L. Andrinopoulos, P. W. Avraam, R. A. Bell,       |
 |  A. Bhandari, G. A. Bramley, R. J. Charlton, S. J. Clark,     |
 |  R. J. Clements, G. C. Constantinescu, F. Corsetti,           |
 |  N. Corsini, O. Dieguez, S. M. M. Dubois, K. K. B. Duff,      |
 |  J. M. Escartin, M. Escobar Azor, A. Greco,                   |
 |  H. Helal, Q. O. Hill, L. P. Lee, J.-H. Li,                   |
 |  E. B. Linscott, G. Moynihan, D. D. O`Regan,                  |
 |  O. K. Okan, M. J. S. Phipps, C. J. Pickard,                  |
 |  J. C. A. Prentice, M. I. J. Probert, L. E. Ratcliff,         |
 |  M. Robinson, A. Ruiz Serrano, M. dos Santos Dias,            |
 |  J. S. Spencer, E. W. Tait, G. Teobaldi, D. Turban,           |
 |  V. Vitale, K. A. Wilkinson, C. Weber, J. C. Womack,          |
 |  N. Yeung and T. J. Zuehlsdorff                               |
 |                                                               |
 |                                   Copyright (c) 2004-2023     |
 |                                                               |
 |  Please cite:                                                 |
 |  "The ONETEP linear-scaling density functional theory program"|
 |   J. Chem. Phys. 152(17) 174111 (2020)                        |
 |                                                               |
 |          in all publications arising from your use of ONETEP. |
 |                                                               |
 +---------------------------------------------------------------+
 |                                                               |
 |   ONETEP is based on developments described in the following  |
 |   publications:                                               |
 |                                                               |
 |  "Nonorthogonal generalized Wannier function pseudopotential  |
 |   plane-wave method".                                         |
 |   C.-K. Skylaris, A. A. Mostofi, P. D. Haynes, O. Dieguez,    |
 |   M. C. Payne.                                                |
 |   Phys. Rev. B 66 035119 (2002).                              |
 |                                                               |
 |  "Preconditioned iterative minimization for linear-scaling    |
 |   electronic structure calculations".                         |
 |   A. A. Mostofi, P. D. Haynes, C.-K. Skylaris, M. C. Payne.   |
 |   J. Chem. Phys. 119(17), pp.8842-8848 (2003).                |
 |                                                               |
 |  "Total-energy calculations on a real space grid with         |
 |   localized functions and a plane-wave basis".                |
 |   A. A. Mostofi, C.-K. Skylaris, P. D. Haynes, M. C. Payne.   |
 |   Comput. Phys. Commun. 147, pp.788-802 (2002).               |
 |                                                               |
 |  "Accurate kinetic energy evaluation in electronic structure  |
 |   calculations with localized functions on real space grids"  |
 |   C.-K. Skylaris, A. A. Mostofi, P. D. Haynes, C. J. Pickard, |
 |   M. C. Payne.                                                |
 |   Comput. Phys. Commun. 140, pp.315-322 (2001).               |
 |                                                               |
 |  "Accurate ionic forces and geometry optimization in linear-  |
 |   scaling density-functional theory with local orbitals"      |
 |   N. D. M. Hine, M. Robinson, P. D. Haynes, C.-K. Skylaris,   |
 |   M. C. Payne, and A. A. Mostofi.                             |
 |   Phys. Rev. B 83 195102 (2011).                              |
 |                                                               |
 +---------------------------------------------------------------+

Job started: 31-10-2023 23:34 (+0000)
 
Reading parameters from file "graphite.dat" ...... done

If your calculation crashes here, before "Checking processes and threads..."
is displayed, then your stack size is insufficient.
If so, use "ulimit -s unlimited" at runtime.
You can disable this check with "check_stack_size F".

Checking processes and threads...
   Determining the default number of threads...
      No default threads set at compilation time: defaulting to 1.
      OpenMP library call suggests 8 threads.
      Hybrid MPI-OpenMP compilation detected.
      Number of MPI processes > 1.
      OMP_NUM_THREADS environment variable present and
      its value matches the one obtained from the OpenMP library call.
      Using this value as default.
      Default threads: 8
      Default applies to threads_max and threads_num_fftboxes.
      Settings in the input file override this default.
   ... done

   Running with 128 MPI processes.
   There are 16 MPI processes running on the same node as the root process.
   Each MPI process is using: 
               1 threads for simulation cell FFTs.
               1 threads for parallel FFT box operations.
               8 threads for loops over batched FFT box operations.
               8 threads in other parallel regions.
   MPI Interface: S1 (use mpi_f08) (-DMPI -DUSE_MPI_F08).
   MPI_ASYNC_PROTECTS_NONBLOCKING: Yes. MPI_SUBARRAYS_SUPPORTED: Yes.
   GPU Interface: None.
... done

Basic input checks...
Resetting ngwf_cg_rotate to TRUE for EDFT calculations
... done

Reading geometry and species blocks from file "graphite.dat" ...
  Reading POSITIONS geometry from str.xyz

  <species_atomic_set> block not found: NGWF initialisation set to SOLVE
IS: Dielectric excluded regions:
    - NONE.
IS: Assigning soft sphere radii for soft sphere solvation...
IS: No soft sphere radii specified. Default Alvarez radii used for all atoms.

----------- SOFT SPHERE RADII -----------
Li  5.333
C   4.442
-----------------------------------------

    
  Number of PPD points along a3 set to 1.  This is 
  the default value, it may have been provided also in the input file.
... done


--------------------------------------------------------------------------------
---------------------------------- INPUT FILE ----------------------------------
--------------------------------------------------------------------------------

task geometryoptimization                                                       
geom_method LBFGS                                                               
geom_continuation T                                                             
write_xyz T                                                                     
edft_grand_canonical T                                                          
edft_reference_potential  -4.42 eV                                              
edft_electrode_potential -0.10 V                                                
edft_nelec_thres 0.000001                                                       
is_dielectric_function soft_sphere                                              
is_implicit_solvent T                                                           
is_smeared_ion_rep T                                                            
is_include_apolar T                                                             
is_solvation_properties F                                                       
is_pbe                    full                                                  
is_pbe_temperature        298.15                                                
is_pbe_bc_debye_screening T                                                     
is_pbe_neutralisation_scheme counterions_auto                                   
is_pbe_energy_tolerance 1E+50                                                   
is_bc_coarseness 5                                                              
is_bc_threshold 1E-9                                                            
is_bulk_permittivity 90.7                                                       
is_solvent_surf_tension 0.0506 N/m                                              
%block sol_ions                                                                 
Li  +1 1.0                                                                      
PF6 -1 1.0                                                                      
%endblock sol_ions                                                              
is_steric_pot_type M                                                            
is_hc_steric_dens_isovalue  0.001                                               
is_hc_steric_smearing         0.4 bohr                                          
is_steric_write T                                                               
%block species_solvent_radius                                                   
Li 3.0                                                                          
C 3.0                                                                           
%endblock species_solvent_radius                                                
multigrid_bc:   P P P                                                           
ion_ion_bc:     P P P                                                           
pspot_bc:       P P P                                                           
smeared_ion_bc: P P P                                                           
mg_max_iters_vcycle 500                                                         
mg_vcyc_smoother_iter_pre 4                                                     
mg_vcyc_smoother_iter_post 4                                                    
mg_max_res_ratio 1000.0                                                         
mg_max_iters_newton 300                                                         
edft                    : T                                                     
edft_smearing_width     : 0.1 eV                                                
spin                    : 0.0                                                   
edft_spin_fix           : 2                                                     
spin_polarized          : T                                                     
cutoff_energy :  1000 eV                                                        
kernel_cutoff : 1000 bohr                                                       
xc_functional PBE                                                               
dispersion 4                                                                    
output_detail VERBOSE                                                           
do_properties T                                                                 
cube_format F                                                                   
dx_format F                                                                     
write_denskern T                                                                
write_tightbox_ngwfs T                                                          
write_hamiltonian T                                                             
%block species                                                                  
Li Li 3  5  8.0                                                                 
C  C  6  4  8.0                                                                 
%endblock species                                                               
%block species_pot                                                              
Li '/work/e89/e89/arihant/pseudo/Li.usp'                                        
C '/work/e89/e89/arihant/pseudo/C.usp'                                          
%endblock species_pot                                                           
%BLOCK LATTICE_CART                                                             
ang                                                                             
34.16920551     0.00000000     0.00000000                                       
0.00000000    19.72760000     0.00000000                                        
0.00000000     0.00000000   100.02798000                                        
%ENDBLOCK LATTICE_CART                                                          
positions_xyz_file str.xyz                                                      
     Hash =   000008393249018618214921

--------------------------------------------------------------------------------
-------------------------------- END INPUT FILE --------------------------------
--------------------------------------------------------------------------------


 
 ESDF WARNING(1): "ispbeenergytolerance" (esdf_physical) has no units. Assume "hartree".
<<<<<<<<<<<<<<<<<<<<<<<<<<<<<<<<< Full system >>>>>>>>>>>>>>>>>>>>>>>>>>>>>>>>>>
<<<<<<<<<<<<<<<<<<<<<<<<< Pseudopotential information >>>>>>>>>>>>>>>>>>>>>>>>>>
File: /work/e89/e89/arihant/pseudo/Li.usp [ 2001 points up to Gmax=  52.9 (1/bohr)]
  Atomic number:  3;  ionic charge:  3.000000
    Shell 1: l = 0; rc = 1.19 bohr
    Shell 2: l = 0; rc = 1.25 bohr
File: /work/e89/e89/arihant/pseudo/C.usp [ 2001 points up to Gmax=  52.9 (1/bohr)]
  Atomic number:  6;  ionic charge:  4.000000
    Shell 1: l = 0; rc = 1.19 bohr
  Core charge supplied for Nonlinear Core Corrections
<<<<<<<<<<<<<<<<<<<<<<<<<<<<<<<<<<<<<<<<>>>>>>>>>>>>>>>>>>>>>>>>>>>>>>>>>>>>>>>>

-------------------------- Atom counting information ---------------------------
Symbol    Natoms    Nngwfs    Nprojs
  Li        64       320       128
  C        512      2048       512
.......   ......    ......    ......
Totals:    576      2368       640
--------------------------------------------------------------------------------

=============================== PSINC grid sizes ===============================
                      Simulation cell:  143 x  91 x 416
                              FFT-box:  117 x  91 x 117
                                  PPD:   11 x   7 x   1
Grid space d1=  0.451541543008a0 (KE cutoff=  37.25706Eh =1013.81618eV)
Grid space d2=  0.409667706512a0 (KE cutoff=  45.26271Eh =1231.66098eV)
Grid space d3=  0.454388192297a0 (KE cutoff=  36.79171Eh =1001.15326eV)
================================================================================
  
WARNING in cell_grid_distribute:
Average of less than one 23-slab per proc, so workload cannot be
equally balanced between procs.

********************* Fourier parallelisation information **********************
       Coarse grid (whole simulation cell) dimensions:    143    91   416
          Real-space ('12') slabs/proc (min max mean):      3     4     3
         Recip-space ('23') slabs/proc (min max mean):      0     1     0
********************************************************************************

********************* Fourier parallelisation information **********************
       Double grid (whole simulation cell) dimensions:    286   182   832
          Real-space ('12') slabs/proc (min max mean):      6     7     6
         Recip-space ('23') slabs/proc (min max mean):      1     2     1
********************************************************************************

********************* Fourier parallelisation information **********************
         Fine grid (whole simulation cell) dimensions:    288   184   832
          Real-space ('12') slabs/proc (min max mean):      6     7     6
         Recip-space ('23') slabs/proc (min max mean):      1     2     1
         Grid scale modified to satisfy multigrid solver grid constraints
         Grid scale values after modifification:         2.01  2.02  2.00
********************************************************************************
ONETEP fine grid is 288 x 184 x 832 gridpoints, 64.5704 x 37.2798 x 189.0255 bohr.
FD multigrid is     288 x 184 x 832 gridpoints, 64.5704 x 37.2798 x 189.0255 bohr.


Atom SCF Calculation for Li : Z (AE atom) =   3 : Z (PS atom) =   3
Config String:
Orbitals (num,occ):  3     2.00 1.00 0.00
Orbitals   (num,l):  3        0    0    1
Real-space Grid (nr,dr,rmax): 1343    0.0059612519    8.0000000000
Spherical Bessel Basis (nsws,lmax,cutoff):   37    1  220.4959463253
Confining potential (l,width,scale):  0    3.0000000000  100.0000000000
Confining potential (l,width,scale):  1    3.0000000000  100.0000000000
  1         -3.7050169094   -5.2301177776    2.5388568852   -0.9989538802
  2         -6.0510920273   -4.2679357854    3.2724001845   -1.3422946715
  3         -6.7975021434   -3.8722499620    3.6648237887   -1.5325279919
  4         -7.0147472228   -3.7673066376    3.7864613280   -1.5966989055
  5         -7.0774132854   -3.7446783348    3.8157063634   -1.6161454686
  6         -7.0951992563   -3.7420177453    3.8204515040   -1.6217593843
  7         -7.1001226024   -3.7430426481    3.8200527077   -1.6233132433
  8         -7.1014239576   -3.7441529610    3.8191274553   -1.6237164860
  9         -7.1017352306   -3.7448434699    3.8184905098   -1.6238077213
 10         -7.1017916056   -3.7452114113    3.8181373932   -1.6238209669
 11         -7.1017908912   -3.7453946820    3.8179578223   -1.6238181917
 12         -7.1017822190   -3.7454828903    3.8178702968   -1.6238141227
 13         -7.1017768840   -3.7455162316    3.8178369316   -1.6238119017
 14         -7.1017732849   -3.7455353767    3.8178176959   -1.6238104459
 15         -7.1017709700   -3.7455463461    3.8178066371   -1.6238095253
 16         -7.1017695244   -3.7455526225    3.8178002910   -1.6238089565
 17         -7.1017686390   -3.7455562110    3.8177966534   -1.6238086105
 18         -7.1017681040   -3.7455582619    3.8177945697   -1.6238084022
 19         -7.1017677838   -3.7455594341    3.8177933764   -1.6238082778
 20         -7.1017675934   -3.7455601042    3.8177926929   -1.6238082039
 21         -7.1017674808   -3.7455604874    3.8177923014   -1.6238081602
 22         -7.1017674145   -3.7455607066    3.8177920771   -1.6238081344
Atom SCF converged after  22 iterations to a total energy of     -7.10176741

Atom SCF Calculation for C  : Z (AE atom) =   6 : Z (PS atom) =   4
Config String:
Orbitals (num,occ):  2     2.00 2.00
Orbitals   (num,l):  2        0    1
Real-space Grid (nr,dr,rmax): 1343    0.0059612519    8.0000000000
Spherical Bessel Basis (nsws,lmax,cutoff):   37    1  220.4959463253
Confining potential (l,width,scale):  0    3.0000000000  100.0000000000
Confining potential (l,width,scale):  1    3.0000000000  100.0000000000
  1         -5.8177092822   -1.2555419264    4.5135233515   -1.7471920893
  2         -5.6032261188   -1.3440047989    4.4246587726   -1.7090653419
  3         -5.5936068668   -1.3561735374    4.4140765627   -1.7034094417
  4         -5.5958505747   -1.3587284552    4.4121342699   -1.7022848669
  5         -5.5969687665   -1.3601698222    4.4109982405   -1.7017057890
  6         -5.5975400979   -1.3609792837    4.4103423276   -1.7013975981
  7         -5.5978435204   -1.3614297943    4.4099696476   -1.7012314972
  8         -5.5980096069   -1.3616786122    4.4097605138   -1.7011416075
  9         -5.5981021113   -1.3618152853    4.4096441572   -1.7010929151
 10         -5.5981539939   -1.3618900852    4.4095797860   -1.7010665406
 11         -5.5981831160   -1.3619309228    4.4095443105   -1.7010522599
 12         -5.5981994243   -1.3619531807    4.4095248124   -1.7010445305
 13         -5.5982085235   -1.3619652972    4.4095141175   -1.7010403487
 14         -5.5982135796   -1.3619718867    4.4095082606   -1.7010380870
 15         -5.5982163780   -1.3619754676    4.4095050573   -1.7010368642
 16         -5.5982179208   -1.3619774123    4.4095033073   -1.7010362032
 17         -5.5982187685   -1.3619784678    4.4095023522   -1.7010358460
 18         -5.5982192328   -1.3619790404    4.4095018314   -1.7010356530
 19         -5.5982194864   -1.3619793509    4.4095015476   -1.7010355488
 20         -5.5982196245   -1.3619795192    4.4095013931   -1.7010354925
 21         -5.5982196995   -1.3619796104    4.4095013090   -1.7010354621
Atom SCF converged after  21 iterations to a total energy of     -5.59821970

BC: Task: GEOMETRYOPTIMIZATION
BC: +++++++++++++++ Summary of boundary conditions ++++++++++++++
BC: |       Component       |     Keyword     |   Periodicity   |
BC: |                       |                 |     X  Y  Z [1] |
BC: |-----------------------------------------------------------|
BC: | Ion-ion               | ion_ion_bc [2]  |     P  P  P     |
BC: | Local pseudopotential | pspot_bc [3]    |     P  P  P     |
BC: | Multigrid solver      | multigrid_bc    |     P  P  P     |
BC: | Smeared ions          | smeared_ion_bc  |     P  P  P     |
BC: | Van der Waals         | vdw_bc          |     P  P  P     |
BC: +++++++++++++++++++++++++++++++++++++++++++++++++++++++++++++
BC: P: Periodic, O: Open.
BC: [1] Not strictly along X, Y, Z but rather along lattice vectors A1, A2, A3.
BC: [2] Also affected by: pbc_correction_cutoff, cutoff_coulomb_type,
BC:     is_smeared_ion_rep, is_implicit_solvent, openbc_ion_ion.
BC: [3] Also affected by: is_smeared_ion_rep, is_implicit_solvent, openbc_pspot.

================================================================================
<<<<<<<<<<<<<<<< Resuming previous ONETEP Geometry Optimisation >>>>>>>>>>>>>>>>
================================================================================

 Geometry Optimisation: output file is "graphite.geom"
 
 Reading continuation file "graphite.continuation" ...done
 Geometry Optimisation: read_tightbox_ngwfs parameter over-ridden to TRUE
 Geometry Optimisation: read_hamiltonian parameter over-ridden to T
 
                           -------------------------------
                                     Cell Contents
                           -------------------------------
 
            xxxxxxxxxxxxxxxxxxxxxxxxxxxxxxxxxxxxxxxxxxxxxxxxxxxxxxxxxxxx
            x  Element    Atom      Absolute co-ordinates of atoms     x
            x            Number        x           y           z       x
            x----------------------------------------------------------x
            x    Li        1        0.035647   37.134176   16.411533   x
            x    Li        2        0.035760   27.811370   16.412461   x
            x    Li        3        0.035524   18.486648   16.411208   x
            x    Li        4        0.035570    9.170884   16.409385   x
            x    Li        5        8.133724   32.465382   16.411377   x
            x    Li        6        8.134569   23.152584   16.413765   x
            x    Li        7        8.139619   13.830144   16.404240   x
            x    Li        8        8.136827    4.515535   16.409251   x
            x    Li        9       16.235698    9.176825   16.389452   x
            x    Li       10       16.235902   18.478265   16.400142   x
            x    Li       11       16.236028   27.811295   16.411702   x
            x    Li       12       16.235841   37.137759   16.411344   x
            x    Li       13       24.332042   32.464909   16.407827   x
            x    Li       14       24.331247   23.152741   16.410069   x
            x    Li       15       24.324212   13.830968   16.401967   x
            x    Li       16       24.327409    4.514998   16.407384   x
            x    Li       17       32.408229   37.132820   16.410436   x
            x    Li       18       32.408383   27.811276   16.408284   x
            x    Li       19       32.408911   18.488019   16.410242   x
            x    Li       20       32.408871    9.170833   16.411392   x
            x    Li       21       40.460918   32.462175   16.401538   x
            x    Li       22       40.455901   23.156801   16.407627   x
            x    Li       23       40.452045   13.833386   16.409343   x
            x    Li       24       40.452553    4.511311   16.411218   x
            x    Li       25       48.478176   37.124500   16.398012   x
            x    Li       26       48.478121   27.816831   16.387104   x
            x    Li       27       48.478201   18.491326   16.409115   x
            x    Li       28       48.478262    9.170779   16.409712   x
            x    Li       29       56.516571   32.462900   16.400685   x
            x    Li       30       56.520437   23.156098   16.406800   x
            x    Li       31       56.525452   13.832782   16.407203   x
            x    Li       32       56.524651    4.511844   16.408586   x
            x    C        33       18.932290    9.202469   12.879317   x
            x    C        34       13.513705    9.202323   12.881739   x
            x    C        35       14.871106   11.543753   12.878926   x
            x    C        36       17.574753   11.543731   12.879895   x
            x    C        37       51.212604   27.842307   12.880465   x
            x    C        38       45.797284   27.842156   12.881285   x
            x    C        39       47.154135   30.183836   12.878998   x
            x    C        40       49.856416   30.183491   12.880630   x
            x    C        41       14.870340    6.859384   12.880628   x
            x    C        42       17.575555    6.859551   12.881530   x
            x    C        43       21.589723   13.863119   12.892731   x
            x    C        44       18.918206   13.862664   12.885505   x
            x    C        45       13.527569   13.862806   12.883875   x
            x    C        46       14.871009   16.181620   12.891662   x
            x    C        47       17.575094   16.181565   12.892600   x
            x    C        48       47.153279   25.499120   12.880506   x
            x    C        49       49.857024   25.499708   12.881853   x
            x    C        50       53.868203   32.503054   12.890653   x
            x    C        51       51.197659   32.502864   12.885619   x
            x    C        52       45.812571   32.502724   12.884309   x
            x    C        53       47.153854   34.821433   12.891810   x
            x    C        54       49.856705   34.821971   12.893114   x
            x    C        55       14.871495    2.221656   12.890144   x
            x    C        56       17.574200    2.221804   12.891163   x
            x    C        57       22.944967    2.200980   12.899594   x
            x    C        58        9.500156    2.200516   12.901547   x
            x    C        59       63.294608    2.223644   12.896340   x
            x    C        60        6.796633    2.200721   12.901860   x
            x    C        61       31.016892    2.223158   12.897708   x
            x    C        62        1.426215    2.223203   12.898226   x
            x    C        63       25.647988    2.201012   12.900979   x
            x    C        64       33.718400    2.223096   12.897988   x
            x    C        65       39.086248    2.200541   12.903830   x
            x    C        66       55.222858    2.200515   12.898088   x
            x    C        67       57.925231    2.201448   12.901367   x
            x    C        68       47.154641    2.222421   12.886810   x
            x    C        69       41.788277    2.200334   12.902219   x
            x    C        70       49.855619    2.222344   12.887702   x
            x    C        71       18.918297    4.540052   12.881905   x
            x    C        72       13.527522    4.539875   12.880416   x
            x    C        73       10.855690    4.541693   12.891976   x
            x    C        74       27.003982    4.542991   12.896253   x
            x    C        75        5.440505    4.542785   12.900039   x
            x    C        76       21.589779    4.541953   12.893754   x
            x    C        77       59.280384    4.542498   12.899186   x
            x    C        78        2.768743    4.542348   12.894774   x
            x    C        79       35.060331    4.541760   12.896971   x
            x    C        80       61.951634    4.542182   12.893427   x
            x    C        81       29.675028    4.542375   12.894299   x
            x    C        82       43.143186    4.541697   12.898928   x
            x    C        83       51.196630    4.541169   12.889879   x
            x    C        84       37.730991    4.541859   12.904415   x
            x    C        85       53.867271    4.542183   12.897537   x
            x    C        86       45.813188    4.540894   12.890123   x
            x    C        87       22.946332    6.882159   12.888315   x
            x    C        88       63.294510    6.861183   12.900730   x
            x    C        89        6.796908    6.882926   12.892819   x
            x    C        90       31.015682    6.861849   12.904070   x
            x    C        91       39.086647    6.881933   12.898570   x
            x    C        92       57.924630    6.882213   12.896003   x
            x    C        93        1.427512    6.861908   12.902575   x
            x    C        94        9.498890    6.882023   12.890065   x
            x    C        95       25.647927    6.883209   12.892247   x
            x    C        96       33.718509    6.860901   12.904551   x
            x    C        97       55.223183    6.882750   12.894644   x
            x    C        98       47.153691    6.860243   12.900967   x
            x    C        99       41.787636    6.881985   12.899205   x
            x    C       100       49.856462    6.860950   12.901633   x
            x    C       101       51.210995    9.202471   12.899534   x
            x    C       102       59.266607    9.201989   12.891527   x
            x    C       103        2.782574    9.202958   12.898015   x
            x    C       104       26.990381    9.201934   12.889932   x
            x    C       105       35.073941    9.202677   12.899225   x
            x    C       106       43.128257    9.201494   12.895846   x
            x    C       107       53.881432    9.201829   12.892385   x
            x    C       108       61.938662    9.203082   12.897988   x
            x    C       109        5.453958    9.201836   12.889708   x
            x    C       110       21.604540    9.201572   12.881327   x
            x    C       111       29.661037    9.202788   12.901693   x
            x    C       112       37.745208    9.201532   12.893994   x
            x    C       113       45.798566    9.202252   12.901823   x
            x    C       114       10.841117    9.201388   12.882733   x
            x    C       115       47.154366   11.542793   12.898381   x
            x    C       116       55.222406   11.521448   12.898960   x
            x    C       117       63.295462   11.543515   12.894222   x
            x    C       118       31.016293   11.542435   12.897007   x
            x    C       119       39.085817   11.521722   12.901796   x
            x    C       120       49.855603   11.542586   12.899137   x
            x    C       121       57.925441   11.522391   12.899462   x
            x    C       122        1.426899   11.542510   12.895525   x
            x    C       123       33.717591   11.543054   12.898002   x
            x    C       124       41.788256   11.521468   12.903172   x
            x    C       125        6.796361   11.520878   12.895059   x
            x    C       126       22.945540   11.521553   12.891724   x
            x    C       127       25.648617   11.521191   12.894155   x
            x    C       128        9.499634   11.521221   12.893574   x
            x    C       129       45.812786   13.861453   12.896646   x
            x    C       130       43.142787   13.863074   12.900228   x
            x    C       131       51.196763   13.861706   12.896428   x
            x    C       132       59.280604   13.863613   12.896997   x
            x    C       133       35.060100   13.861861   12.895269   x
            x    C       134       53.867271   13.863390   12.899062   x
            x    C       135       61.951967   13.862103   12.892126   x
            x    C       136       29.674687   13.861460   12.890975   x
            x    C       137       37.730670   13.863354   12.901766   x
            x    C       138        2.769246   13.861353   12.891439   x
            x    C       139       27.003581   13.862696   12.890865   x
            x    C       140        5.440986   13.862430   12.894622   x
            x    C       141       10.855843   13.862988   12.890593   x
            x    C       142       47.153666   16.180385   12.904271   x
            x    C       143       55.223575   16.203269   12.894529   x
            x    C       144       41.787015   16.202828   12.898927   x
            x    C       145       49.856274   16.180940   12.905099   x
            x    C       146       39.086605   16.203056   12.898081   x
            x    C       147       63.294213   16.181188   12.901337   x
            x    C       148       31.015700   16.181252   12.901660   x
            x    C       149       57.924610   16.203072   12.895643   x
            x    C       150       33.718840   16.181121   12.903066   x
            x    C       151        6.797871   16.202950   12.890180   x
            x    C       152        1.427435   16.181312   12.901977   x
            x    C       153       25.647088   16.203195   12.889210   x
            x    C       154       22.945504   16.203034   12.887977   x
            x    C       155        9.499778   16.202877   12.889851   x
            x    C       156       51.211393   18.521880   12.899422   x
            x    C       157       45.798138   18.521785   12.900947   x
            x    C       158       43.127882   18.521256   12.895918   x
            x    C       159       53.881658   18.521368   12.893217   x
            x    C       160       35.074509   18.522931   12.898953   x
            x    C       161       59.266604   18.521896   12.893960   x
            x    C       162       37.745235   18.521720   12.895402   x
            x    C       163       61.938160   18.523169   12.900364   x
            x    C       164       29.660474   18.522861   12.900779   x
            x    C       165        2.783215   18.522892   12.899109   x
            x    C       166       26.989322   18.521955   12.891007   x
            x    C       167        5.454971   18.521901   12.891498   x
            x    C       168       10.843241   18.521648   12.887740   x
            x    C       169       18.930966   18.523078   12.887954   x
            x    C       170       21.602561   18.521909   12.885698   x
            x    C       171       13.515003   18.522726   12.890977   x
            x    C       172       47.154384   20.861482   12.890192   x
            x    C       173       49.855571   20.861219   12.891461   x
            x    C       174       55.223403   20.840358   12.899157   x
            x    C       175       41.787416   20.840563   12.902204   x
            x    C       176       31.016663   20.862719   12.897038   x
            x    C       177       39.085190   20.841207   12.902965   x
            x    C       178       63.295088   20.863476   12.896626   x
            x    C       179       33.718074   20.863449   12.897499   x
            x    C       180       57.926137   20.841621   12.901703   x
            x    C       181        1.426623   20.862744   12.898375   x
            x    C       182        6.797710   20.840596   12.902761   x
            x    C       183       22.944232   20.841199   12.898699   x
            x    C       184       25.647352   20.840892   12.900893   x
            x    C       185       14.871944   20.862272   12.886470   x
            x    C       186        9.501089   20.840746   12.901981   x
            x    C       187       17.574081   20.862442   12.886646   x
            x    C       188       51.197404   23.179814   12.881852   x
            x    C       189       45.812400   23.179640   12.880920   x
            x    C       190       43.142289   23.181715   12.891996   x
            x    C       191       59.281266   23.182933   12.898382   x
            x    C       192       37.730155   23.182848   12.901175   x
            x    C       193       53.868099   23.181920   12.892792   x
            x    C       194       27.003404   23.182483   12.897942   x
            x    C       195       35.059921   23.182240   12.894729   x
            x    C       196        2.769196   23.181635   12.896096   x
            x    C       197       29.674945   23.181918   12.893447   x
            x    C       198       61.952099   23.182231   12.893934   x
            x    C       199       10.856767   23.181787   12.899699   x
            x    C       200       18.917304   23.181006   12.889006   x
            x    C       201        5.441313   23.181963   12.903253   x
            x    C       202       21.588793   23.182061   12.899362   x
            x    C       203       13.528594   23.180866   12.889318   x
            x    C       204       55.224896   25.522502   12.888590   x
            x    C       205       31.016508   25.501480   12.901453   x
            x    C       206       39.085405   25.522583   12.894342   x
            x    C       207       63.293944   25.501229   12.902833   x
            x    C       208        6.798003   25.522232   12.898442   x
            x    C       209       25.646730   25.522618   12.895889   x
            x    C       210       33.719279   25.501424   12.901647   x
            x    C       211       41.786191   25.522143   12.891004   x
            x    C       212       57.926084   25.522526   12.893777   x
            x    C       213        1.426827   25.501454   12.904808   x
            x    C       214       22.944670   25.522304   12.895957   x
            x    C       215       14.870983   25.500566   12.900406   x
            x    C       216        9.500512   25.521974   12.899617   x
            x    C       217       17.574967   25.500448   12.900445   x
            x    C       218       18.930638   27.842720   12.898591   x
            x    C       219       26.989833   27.841821   12.891943   x
            x    C       220       35.074279   27.842741   12.896200   x
            x    C       221       59.267365   27.841818   12.890167   x
            x    C       222        2.782029   27.842834   12.900643   x
            x    C       223       10.843165   27.841315   12.895411   x
            x    C       224       21.602434   27.841734   12.892608   x
            x    C       225       29.661442   27.842901   12.899757   x
            x    C       226       37.744607   27.841602   12.890480   x
            x    C       227       53.883523   27.841271   12.882250   x
            x    C       228       61.938378   27.843059   12.899748   x
            x    C       229        5.454357   27.841517   12.894117   x
            x    C       230       13.515239   27.842368   12.901900   x
            x    C       231       43.126574   27.841205   12.883831   x
            x    C       232       14.871603   30.182821   12.897689   x
            x    C       233       22.943932   30.161767   12.899314   x
            x    C       234       31.017410   30.182888   12.895147   x
            x    C       235       63.294396   30.183076   12.895938   x
            x    C       236        6.797105   30.161212   12.901176   x
            x    C       237       17.574121   30.183144   12.897856   x
            x    C       238       25.647604   30.161603   12.898538   x
            x    C       239       33.718625   30.182844   12.895056   x
            x    C       240        1.425639   30.182805   12.898534   x
            x    C       241        9.501221   30.161238   12.902845   x
            x    C       242       39.084949   30.160811   12.895695   x
            x    C       243       55.224116   30.160739   12.890895   x
            x    C       244       57.926709   30.161536   12.894771   x
            x    C       245       41.787077   30.160895   12.893503   x
            x    C       246       13.528241   32.501608   12.895165   x
            x    C       247       10.856337   32.502894   12.900160   x
            x    C       248       18.917376   32.501993   12.895274   x
            x    C       249       27.003418   32.503612   12.895176   x
            x    C       250        2.768822   32.501807   12.894666   x
            x    C       251       21.588871   32.503273   12.900215   x
            x    C       252       29.675039   32.501970   12.891987   x
            x    C       253       61.951774   32.501513   12.890540   x
            x    C       254        5.441086   32.503259   12.900440   x
            x    C       255       35.060383   32.501279   12.891904   x
            x    C       256       59.281030   32.502540   12.892210   x
            x    C       257       37.730606   32.502125   12.895501   x
            x    C       258       43.142375   32.502599   12.889879   x
            x    C       259       14.870798   34.820712   12.903426   x
            x    C       260       22.945241   34.842813   12.894973   x
            x    C       261        9.499788   34.842398   12.898168   x
            x    C       262       17.574821   34.820800   12.903925   x
            x    C       263        6.798030   34.842997   12.896876   x
            x    C       264       31.016156   34.821537   12.902126   x
            x    C       265       63.293702   34.820807   12.900587   x
            x    C       266       25.646756   34.843386   12.894920   x
            x    C       267        1.426928   34.821509   12.903345   x
            x    C       268       39.086313   34.842243   12.891038   x
            x    C       269       33.719308   34.820799   12.901723   x
            x    C       270       57.925125   34.842574   12.889664   x
            x    C       271       55.224011   34.843237   12.887108   x
            x    C       272       41.787034   34.842477   12.889993   x
            x    C       273       18.931090   37.161846   12.898291   x
            x    C       274       13.514559   37.161824   12.900916   x
            x    C       275       10.842549   37.160830   12.894518   x
            x    C       276       21.602811   37.161384   12.892578   x
            x    C       277        2.782714   37.162824   12.900551   x
            x    C       278       26.989592   37.161668   12.894112   x
            x    C       279        5.454561   37.161194   12.894561   x
            x    C       280       29.660588   37.162955   12.902089   x
            x    C       281       61.937755   37.162960   12.899007   x
            x    C       282       35.074962   37.162594   12.897725   x
            x    C       283       59.266307   37.161926   12.890720   x
            x    C       284       37.745661   37.161241   12.892209   x
            x    C       285       43.128380   37.161161   12.888309   x
            x    C       286       51.211504   37.162818   12.888835   x
            x    C       287       53.881627   37.161615   12.886060   x
            x    C       288       45.798589   37.162632   12.890607   x
            x    Li      289        0.048813   37.111041    9.375304   x
            x    Li      290        0.048659   27.789924    9.375927   x
            x    Li      291        0.048881   18.467046    9.374975   x
            x    Li      292        0.048982    9.148419    9.373585   x
            x    Li      293        8.136902   32.448073    9.375641   x
            x    Li      294        8.137290   23.129766    9.376891   x
            x    Li      295        8.137052   13.811208    9.366800   x
            x    Li      296        8.137531    4.487599    9.371559   x
            x    Li      297       16.226756    9.146614    9.355739   x
            x    Li      298       16.226392   18.467104    9.363301   x
            x    Li      299       16.226239   27.789982    9.375105   x
            x    Li      300       16.226423   37.112066    9.373381   x
            x    Li      301       24.312892   32.448166    9.372378   x
            x    Li      302       24.312964   23.129493    9.373656   x
            x    Li      303       24.312933   13.811383    9.365028   x
            x    Li      304       24.312413    4.487736    9.369943   x
            x    Li      305       32.388157   37.111376    9.374936   x
            x    Li      306       32.388053   27.789749    9.373001   x
            x    Li      307       32.387720   18.466663    9.374960   x
            x    Li      308       32.387658    9.148094    9.375979   x
            x    Li      309       40.441026   32.447383    9.366436   x
            x    Li      310       40.441420   23.130558    9.371693   x
            x    Li      311       40.440858   13.811577    9.375237   x
            x    Li      312       40.441106    4.486830    9.376332   x
            x    Li      313       48.482778   37.111940    9.363106   x
            x    Li      314       48.482988   27.788310    9.355407   x
            x    Li      315       48.482958   18.467602    9.372985   x
            x    Li      316       48.482494    9.148086    9.374993   x
            x    Li      317       56.539831   32.447606    9.364707   x
            x    Li      318       56.539283   23.130581    9.370207   x
            x    Li      319       56.540053   13.811777    9.372105   x
            x    Li      320       56.539968    4.487102    9.372776   x
            x    C       321       18.918306    9.195181    5.849154   x
            x    C       322       13.523535    9.194988    5.849894   x
            x    C       323       14.869624   11.532413    5.856516   x
            x    C       324       17.572311   11.532529    5.856091   x
            x    C       325       51.202529   27.834901    5.850419   x
            x    C       326       45.808544   27.834819    5.845121   x
            x    C       327       47.154626   30.172258    5.854450   x
            x    C       328       49.856985   30.172267    5.857239   x
            x    C       329       14.869419    6.857204    5.842170   x
            x    C       330       17.572582    6.857211    5.841635   x
            x    C       331       21.598246   13.856216    5.854772   x
            x    C       332       18.910770   13.856546    5.875520   x
            x    C       333       13.531109   13.856571    5.874215   x
            x    C       334       14.869853   16.180024    5.848414   x
            x    C       335       17.571965   16.179947    5.848178   x
            x    C       336       47.154237   25.496976    5.839870   x
            x    C       337       49.857106   25.497053    5.842620   x
            x    C       338       53.882126   32.495971    5.848230   x
            x    C       339       51.194886   32.496379    5.874209   x
            x    C       340       45.816498   32.496292    5.871738   x
            x    C       341       47.154861   34.819758    5.847413   x
            x    C       342       49.856707   34.819900    5.850428   x
            x    C       343       14.870163    2.209534    5.855675   x
            x    C       344       17.571531    2.209736    5.855314   x
            x    C       345       22.942625    2.198355    5.852432   x
            x    C       346        9.499062    2.197922    5.852823   x
            x    C       347       63.297213    2.212067    5.861342   x
            x    C       348        6.797673    2.198538    5.853877   x
            x    C       349       31.013737    2.212015    5.864308   x
            x    C       350        1.427748    2.212139    5.864901   x
            x    C       351       25.643872    2.198671    5.851747   x
            x    C       352       33.714724    2.211838    5.861271   x
            x    C       353       39.084793    2.198814    5.855186   x
            x    C       354       55.226009    2.199152    5.848100   x
            x    C       355       57.926809    2.199313    5.854513   x
            x    C       356       47.155193    2.211538    5.851353   x
            x    C       357       41.785694    2.198747    5.852058   x
            x    C       358       49.856099    2.211658    5.853683   x
            x    C       359       18.910736    4.533091    5.868798   x
            x    C       360       13.531138    4.532990    5.867771   x
            x    C       361       10.843398    4.534228    5.853524   x
            x    C       362       26.989007    4.535520    5.854354   x
            x    C       363        5.452408    4.535253    5.856963   x
            x    C       364       21.598300    4.534425    5.854044   x
            x    C       365       59.271367    4.535627    5.861901   x
            x    C       366        2.765416    4.535804    5.879338   x
            x    C       367       35.052515    4.535448    5.877474   x
            x    C       368       61.958900    4.535868    5.877162   x
            x    C       369       29.676081    4.535898    5.877304   x
            x    C       370       43.130209    4.534900    5.856473   x
            x    C       371       51.193845    4.534881    5.871678   x
            x    C       372       37.739838    4.535030    5.860277   x
            x    C       373       53.880819    4.535231    5.851557   x
            x    C       374       45.817111    4.534699    5.870682   x
            x    C       375       22.943720    6.870578    5.857253   x
            x    C       376       63.297456    6.859426    5.852900   x
            x    C       377        6.797349    6.871160    5.859098   x
            x    C       378       31.013198    6.859727    5.857145   x
            x    C       379       39.084882    6.870916    5.863943   x
            x    C       380       57.926490    6.871436    5.863670   x
            x    C       381        1.428288    6.859618    5.856540   x
            x    C       382        9.498084    6.870442    5.857744   x
            x    C       383       25.644261    6.871552    5.856822   x
            x    C       384       33.714367    6.859002    5.854438   x
            x    C       385       55.225677    6.871393    5.859720   x
            x    C       386       47.154718    6.858507    5.851941   x
            x    C       387       41.785675    6.870970    5.863318   x
            x    C       388       49.856297    6.858645    5.854199   x
            x    C       389       51.200735    9.195441    5.860838   x
            x    C       390       59.264720    9.195622    5.876360   x
            x    C       391        2.772715    9.195740    5.860673   x
            x    C       392       26.982018    9.195328    5.873374   x
            x    C       393       35.058996    9.195662    5.856233   x
            x    C       394       43.122853    9.194911    5.876974   x
            x    C       395       53.888003    9.195420    5.875671   x
            x    C       396       61.952444    9.196023    5.854267   x
            x    C       397        5.459526    9.195159    5.874896   x
            x    C       398       21.606216    9.194916    5.871665   x
            x    C       399       29.668738    9.195745    5.860396   x
            x    C       400       37.746740    9.195172    5.875718   x
            x    C       401       45.809884    9.195186    5.856510   x
            x    C       402       10.835695    9.194628    5.872850   x
            x    C       403       47.154908   11.531569    5.862619   x
            x    C       404       55.225343   11.519630    5.851474   x
            x    C       405       63.297951   11.532026    5.859688   x
            x    C       406       31.013292   11.531362    5.863680   x
            x    C       407       39.084509   11.519541    5.854893   x
            x    C       408       49.855938   11.531641    5.864804   x
            x    C       409       57.926855   11.519978    5.854654   x
            x    C       410        1.428329   11.531489    5.862879   x
            x    C       411       33.713980   11.531783    5.861516   x
            x    C       412       41.785802   11.519179    5.854886   x
            x    C       413        6.797256   11.518922    5.848944   x
            x    C       414       22.943355   11.519461    5.849234   x
            x    C       415       25.644563   11.519058    5.846330   x
            x    C       416        9.498513   11.519029    5.849852   x
            x    C       417       45.816836   13.854987    5.876813   x
            x    C       418       43.129941   13.855742    5.858171   x
            x    C       419       51.193883   13.855162    5.877765   x
            x    C       420       59.271523   13.856364    5.860330   x
            x    C       421       35.052280   13.855241    5.876371   x
            x    C       422       53.880730   13.856069    5.853564   x
            x    C       423       61.959139   13.855606    5.875923   x
            x    C       424       29.675711   13.855073    5.874400   x
            x    C       425       37.739589   13.855998    5.858558   x
            x    C       426        2.766023   13.854980    5.876368   x
            x    C       427       26.988702   13.855776    5.849292   x
            x    C       428        5.452908   13.855437    5.852248   x
            x    C       429       10.843553   13.855968    5.854079   x
            x    C       430       47.154651   16.178115    5.854104   x
            x    C       431       55.226164   16.191543    5.858741   x
            x    C       432       41.785062   16.191263    5.862027   x
            x    C       433       49.856305   16.178287    5.856384   x
            x    C       434       39.084720   16.191498    5.863115   x
            x    C       435       63.297319   16.179344    5.853106   x
            x    C       436       31.013052   16.179169    5.855447   x
            x    C       437       57.926539   16.191893    5.862956   x
            x    C       438       33.714600   16.179023    5.853559   x
            x    C       439        6.798428   16.191671    5.855972   x
            x    C       440        1.428583   16.179029    5.855728   x
            x    C       441       25.643450   16.192000    5.853640   x
            x    C       442       22.942813   16.192113    5.855575   x
            x    C       443        9.499139   16.192046    5.855977   x
            x    C       444       51.201117   18.514298    5.858280   x
            x    C       445       45.809461   18.514202    5.853699   x
            x    C       446       43.122410   18.514295    5.874750   x
            x    C       447       53.888424   18.514565    5.873879   x
            x    C       448       35.059633   18.515649    5.856615   x
            x    C       449       59.264665   18.515134    5.878101   x
            x    C       450       37.746820   18.514852    5.876981   x
            x    C       451       61.951876   18.515909    5.856229   x
            x    C       452       29.668125   18.515762    5.860323   x
            x    C       453        2.773372   18.515729    5.861813   x
            x    C       454       26.980942   18.515591    5.874344   x
            x    C       455        5.460715   18.515477    5.876118   x
            x    C       456       10.837596   18.515493    5.872706   x
            x    C       457       18.916960   18.516209    5.849757   x
            x    C       458       21.604322   18.515654    5.871129   x
            x    C       459       13.524832   18.516097    5.850811   x
            x    C       460       47.154920   20.849495    5.854521   x
            x    C       461       49.856051   20.849533    5.857332   x
            x    C       462       55.226590   20.838014    5.849684   x
            x    C       463       41.784721   20.837743    5.851916   x
            x    C       464       31.013367   20.851683    5.864877   x
            x    C       465       39.083634   20.838568    5.855234   x
            x    C       466       63.297436   20.852071    5.862119   x
            x    C       467       33.714424   20.852036    5.862120   x
            x    C       468       57.927831   20.838877    5.855814   x
            x    C       469        1.428152   20.851721    5.865647   x
            x    C       470        6.798847   20.838839    5.855208   x
            x    C       471       22.941836   20.839262    5.853041   x
            x    C       472       25.642980   20.838923    5.852214   x
            x    C       473       14.870379   20.851517    5.854629   x
            x    C       474        9.499953   20.838897    5.854595   x
            x    C       475       17.571570   20.851689    5.853766   x
            x    C       476       51.194701   23.172900    5.867513   x
            x    C       477       45.816361   23.172897    5.865072   x
            x    C       478       43.128928   23.174130    5.850423   x
            x    C       479       59.272637   23.175487    5.860810   x
            x    C       480       37.738664   23.175290    5.858049   x
            x    C       481       53.882068   23.174285    5.847846   x
            x    C       482       26.987897   23.175376    5.856566   x
            x    C       483       35.051922   23.175685    5.876827   x
            x    C       484        2.766243   23.175352    5.880873   x
            x    C       485       29.675414   23.175600    5.877742   x
            x    C       486       61.959586   23.175738    5.877654   x
            x    C       487       10.844656   23.174924    5.860556   x
            x    C       488       18.909818   23.174745    5.874791   x
            x    C       489        5.453600   23.174993    5.859964   x
            x    C       490       21.596855   23.175129    5.859480   x
            x    C       491       13.531907   23.174753    5.874908   x
            x    C       492       55.227817   25.510606    5.853170   x
            x    C       493       31.013685   25.499380    5.855699   x
            x    C       494       39.083301   25.510976    5.858766   x
            x    C       495       63.297121   25.499391    5.854161   x
            x    C       496        6.798888   25.510930    5.863153   x
            x    C       497       25.642694   25.511370    5.860194   x
            x    C       498       33.714839   25.499355    5.852560   x
            x    C       499       41.783798   25.510379    5.855181   x
            x    C       500       57.928305   25.511274    5.859672   x
            x    C       501        1.427953   25.499180    5.858224   x
            x    C       502       22.941776   25.511183    5.863306   x
            x    C       503       14.869966   25.498583    5.854634   x
            x    C       504        9.499901   25.510989    5.864681   x
            x    C       505       17.571824   25.498409    5.853769   x
            x    C       506       18.916537   27.835416    5.859030   x
            x    C       507       26.981131   27.835469    5.875120   x
            x    C       508       35.059218   27.835538    5.853249   x
            x    C       509       59.265635   27.835158    5.873317   x
            x    C       510        2.772351   27.835678    5.862246   x
            x    C       511       10.837610   27.834977    5.879719   x
            x    C       512       21.604095   27.835345    5.877776   x
            x    C       513       29.669007   27.835786    5.859274   x
            x    C       514       37.746008   27.835003    5.871638   x
            x    C       515       53.890424   27.834738    5.868404   x
            x    C       516       61.952347   27.835718    5.854385   x
            x    C       517        5.460288   27.835179    5.877255   x
            x    C       518       13.525041   27.835187    5.860641   x
            x    C       519       43.120913   27.834582    5.868634   x
            x    C       520       14.870152   30.171384    5.864845   x
            x    C       521       22.941441   30.159599    5.854765   x
            x    C       522       31.014112   30.171689    5.862590   x
            x    C       523       63.297240   30.171496    5.860654   x
            x    C       524        6.798542   30.159478    5.853666   x
            x    C       525       17.571381   30.171661    5.863905   x
            x    C       526       25.642934   30.159679    5.850885   x
            x    C       527       33.714763   30.171503    5.859257   x
            x    C       528        1.427440   30.171614    5.864641   x
            x    C       529        9.500091   30.159202    5.856029   x
            x    C       530       39.083260   30.158918    5.848883   x
            x    C       531       55.227470   30.159154    5.844850   x
            x    C       532       57.928449   30.159091    5.849158   x
            x    C       533       41.784268   30.158986    5.847429   x
            x    C       534       13.531627   32.494849    5.880876   x
            x    C       535       10.844442   32.495623    5.862152   x
            x    C       536       18.909930   32.495007    5.880567   x
            x    C       537       26.988069   32.496298    5.855139   x
            x    C       538        2.765982   32.495178    5.879481   x
            x    C       539       21.596905   32.495806    5.861041   x
            x    C       540       29.675640   32.495313    5.876797   x
            x    C       541       61.959210   32.494977    5.875227   x
            x    C       542        5.453308   32.495976    5.858148   x
            x    C       543       35.052410   32.494776    5.874516   x
            x    C       544       59.272358   32.495534    5.855925   x
            x    C       545       37.739188   32.495340    5.853664   x
            x    C       546       43.129184   32.495733    5.851060   x
            x    C       547       14.869793   34.818105    5.857585   x
            x    C       548       22.942217   34.831289    5.863296   x
            x    C       549        9.499389   34.831143    5.864656   x
            x    C       550       17.571790   34.817988    5.856465   x
            x    C       551        6.798732   34.831537    5.863312   x
            x    C       552       31.013427   34.819333    5.857282   x
            x    C       553       63.296711   34.818935    5.853718   x
            x    C       554       25.642905   34.831946    5.860905   x
            x    C       555        1.428027   34.819125    5.857986   x
            x    C       556       39.084294   34.831408    5.857302   x
            x    C       557       33.715141   34.818698    5.853362   x
            x    C       558       57.927434   34.831716    5.857556   x
            x    C       559       55.226753   34.832133    5.852623   x
            x    C       560       41.784809   34.831748    5.854824   x
            x    C       561       18.916921   37.154099    5.856740   x
            x    C       562       13.524532   37.154167    5.858216   x
            x    C       563       10.837166   37.154162    5.878173   x
            x    C       564       21.604307   37.154513    5.876469   x
            x    C       565        2.772899   37.155718    5.863337   x
            x    C       566       26.981135   37.154990    5.877969   x
            x    C       567        5.460270   37.154735    5.879285   x
            x    C       568       29.668334   37.155865    5.861992   x
            x    C       569       61.951587   37.155757    5.855464   x
            x    C       570       35.059998   37.155587    5.855295   x
            x    C       571       59.264493   37.155633    5.875006   x
            x    C       572       37.747196   37.155178    5.873938   x
            x    C       573       43.122809   37.155136    5.869338   x
            x    C       574       51.201242   37.156047    5.851609   x
            x    C       575       53.888469   37.155581    5.868603   x
            x    C       576       45.809823   37.155845    5.846679   x
            xxxxxxxxxxxxxxxxxxxxxxxxxxxxxxxxxxxxxxxxxxxxxxxxxxxxxxxxxxxx
 

LBFGS: continuation file name is "graphite.continuation"
 LBFGS: Restarting previous  geometry optimization.
 avg_mass=  20867.333643189002
 Enthalpy contributions:
                  total energy=  -3.14953543E+003 Eh
        diagonal pressure term=   0.00000000E+000 Eh
    off-diagonal pressure term=   0.00000000E+000 Eh
 LBFGS: finished iteration   0  with enthalpy= -3.149535433035E+003 Eh
  
 +-----------+-----------------+-----------------+------------+-----+ <-- LBFGS
 | Parameter |      value      |    tolerance    |    units   | OK? | <-- LBFGS
 +-----------+-----------------+-----------------+------------+-----+ <-- LBFGS
 |  dE/ion   |   0.000000E+000 |   1.000000E-006 |         Eh | No  | <-- LBFGS
 |  |F|max   |   1.620301E-003 |   2.000000E-003 |    Eh/Bohr | Yes | <-- LBFGS
 |  |dR|max  |   0.000000E+000 |   5.000000E-003 |       Bohr | No  | <-- LBFGS
 +-----------+-----------------+-----------------+------------+-----+ <-- LBFGS
  

================================================================================
 Starting LBFGS iteration    1 ...
================================================================================
 Writing xyz coordinates to file "graphite.xyz" ... done

 Writing continuation file "graphite.continuation" ...done
 Backing up NGWFs to file "graphite.tightbox_ngwfs.bfgs_back" ... done
 Backing up Hamiltonian to file "graphite.ham.bfgs_back" ... done
  
 +------------+-------------+-------------+-----------------+ <-- min LBFGS
 |    Step    |   lambda    |   F.delta   |    enthalpy     | <-- min LBFGS
 +------------+-------------+-------------+-----------------+ <-- min LBFGS
 |  previous  |    0.000000 |    0.000672 |    -3149.535433 | <-- min LBFGS
 +------------+-------------+-------------+-----------------+ <-- min LBFGS
  

--------------------------------------------------------------------------------
 LBFGS: starting iteration   1 with trial guess (lambda=    1.000000)
--------------------------------------------------------------------------------
 
                           -------------------------------
                                     Cell Contents
                           -------------------------------
 
            xxxxxxxxxxxxxxxxxxxxxxxxxxxxxxxxxxxxxxxxxxxxxxxxxxxxxxxxxxxx
            x  Element    Atom      Absolute co-ordinates of atoms     x
            x            Number        x           y           z       x
            x----------------------------------------------------------x
            x    Li        1        0.036253   37.135015   16.412471   x
            x    Li        2        0.036375   27.812311   16.413426   x
            x    Li        3        0.036187   18.487613   16.412176   x
            x    Li        4        0.036211    9.171776   16.410430   x
            x    Li        5        8.134032   32.466322   16.412378   x
            x    Li        6        8.134897   23.153395   16.414656   x
            x    Li        7        8.139747   13.831109   16.405252   x
            x    Li        8        8.137096    4.516409   16.410145   x
            x    Li        9       16.235604    9.177465   16.390585   x
            x    Li       10       16.235813   18.479490   16.401303   x
            x    Li       11       16.235941   27.812163   16.412607   x
            x    Li       12       16.235744   37.138610   16.412204   x
            x    Li       13       24.331685   32.465862   16.408893   x
            x    Li       14       24.330871   23.153565   16.411038   x
            x    Li       15       24.324098   13.831913   16.403063   x
            x    Li       16       24.327140    4.515891   16.408330   x
            x    Li       17       32.407977   37.133686   16.411411   x
            x    Li       18       32.408115   27.812222   16.409356   x
            x    Li       19       32.408595   18.488958   16.411231   x
            x    Li       20       32.408573    9.171725   16.412402   x
            x    Li       21       40.460779   32.463201   16.402647   x
            x    Li       22       40.455889   23.157601   16.408581   x
            x    Li       23       40.452026   13.834254   16.410420   x
            x    Li       24       40.452580    4.512209   16.412169   x
            x    Li       25       48.478340   37.125620   16.399244   x
            x    Li       26       48.478273   27.817527   16.388316   x
            x    Li       27       48.478354   18.492283   16.410071   x
            x    Li       28       48.478426    9.171591   16.410707   x
            x    Li       29       56.517414   32.463917   16.401843   x
            x    Li       30       56.521112   23.156905   16.407816   x
            x    Li       31       56.526043   13.833676   16.408314   x
            x    Li       32       56.525216    4.512744   16.409604   x
            x    C        33       18.932420    9.201978   12.878759   x
            x    C        34       13.513508    9.201885   12.880726   x
            x    C        35       14.871556   11.544538   12.878430   x
            x    C        36       17.574162   11.544673   12.878929   x
            x    C        37       51.212479   27.841835   12.879906   x
            x    C        38       45.797316   27.841744   12.880260   x
            x    C        39       47.154736   30.184630   12.878456   x
            x    C        40       49.855759   30.184393   12.879642   x
            x    C        41       14.870983    6.858151   12.880148   x
            x    C        42       17.574784    6.858146   12.880577   x
            x    C        43       21.588713   13.862463   12.891415   x
            x    C        44       18.916569   13.861983   12.884365   x
            x    C        45       13.529258   13.862023   12.882690   x
            x    C        46       14.871353   16.179322   12.890738   x
            x    C        47       17.574593   16.179266   12.891150   x
            x    C        48       47.154043   25.497817   12.879984   x
            x    C        49       49.856177   25.498340   12.880905   x
            x    C        50       53.867190   32.502376   12.889310   x
            x    C        51       51.195797   32.502097   12.884443   x
            x    C        52       45.814367   32.501941   12.883042   x
            x    C        53       47.154365   34.819139   12.890843   x
            x    C        54       49.856118   34.819644   12.891709   x
            x    C        55       14.871756    2.223455   12.889691   x
            x    C        56       17.573866    2.223674   12.890204   x
            x    C        57       22.945254    2.199075   12.898741   x
            x    C        58        9.499767    2.198638   12.900245   x
            x    C        59       63.294919    2.224960   12.895745   x
            x    C        60        6.796965    2.198873   12.900998   x
            x    C        61       31.017166    2.224469   12.897168   x
            x    C        62        1.425920    2.224532   12.897266   x
            x    C        63       25.647581    2.199097   12.899657   x
            x    C        64       33.718014    2.224573   12.897009   x
            x    C        65       39.086358    2.198714   12.902927   x
            x    C        66       55.223304    2.198728   12.897199   x
            x    C        67       57.925083    2.199571   12.900074   x
            x    C        68       47.155000    2.224151   12.886466   x
            x    C        69       41.787681    2.198506   12.900863   x
            x    C        70       49.855245    2.223992   12.886917   x
            x    C        71       18.916632    4.540592   12.881211   x
            x    C        72       13.529128    4.540461   12.879689   x
            x    C        73       10.856677    4.541519   12.891365   x
            x    C        74       27.004746    4.542446   12.895580   x
            x    C        75        5.439589    4.542227   12.898812   x
            x    C        76       21.588793    4.541802   12.892632   x
            x    C        77       59.281172    4.542232   12.898455   x
            x    C        78        2.767480    4.541928   12.894052   x
            x    C        79       35.058866    4.541513   12.896216   x
            x    C        80       61.952950    4.541966   12.892520   x
            x    C        81       29.676483    4.541931   12.893413   x
            x    C        82       43.143782    4.541575   12.898164   x
            x    C        83       51.195103    4.541305   12.889150   x
            x    C        84       37.730212    4.541652   12.903154   x
            x    C        85       53.866402    4.541995   12.896282   x
            x    C        86       45.814739    4.541031   12.889262   x
            x    C        87       22.946164    6.883817   12.887797   x
            x    C        88       63.294670    6.859148   12.899858   x
            x    C        89        6.797282    6.884320   12.892266   x
            x    C        90       31.016346    6.859653   12.903181   x
            x    C        91       39.086808    6.883655   12.898027   x
            x    C        92       57.924441    6.883975   12.895013   x
            x    C        93        1.426827    6.859768   12.901296   x
            x    C        94        9.498968    6.883717   12.889090   x
            x    C        95       25.647383    6.884607   12.891256   x
            x    C        96       33.718244    6.858860   12.903211   x
            x    C        97       55.223624    6.884446   12.894034   x
            x    C        98       47.154261    6.858469   12.900095   x
            x    C        99       41.787162    6.883766   12.898145   x
            x    C       100       49.855816    6.859050   12.900340   x
            x    C       101       51.211444    9.202074   12.898788   x
            x    C       102       59.265320    9.201885   12.890848   x
            x    C       103        2.783234    9.202494   12.897299   x
            x    C       104       26.989018    9.201787   12.889240   x
            x    C       105       35.074872    9.202298   12.898522   x
            x    C       106       43.126894    9.201382   12.895106   x
            x    C       107       53.882648    9.201710   12.891503   x
            x    C       108       61.937538    9.202674   12.896813   x
            x    C       109        5.455165    9.201628   12.888842   x
            x    C       110       21.604945    9.201475   12.880332   x
            x    C       111       29.660426    9.202424   12.900452   x
            x    C       112       37.746584    9.201448   12.893178   x
            x    C       113       45.797964    9.201823   12.900581   x
            x    C       114       10.840816    9.201271   12.881910   x
            x    C       115       47.154771   11.544133   12.897796   x
            x    C       116       55.223049   11.519253   12.898136   x
            x    C       117       63.295458   11.545028   12.893673   x
            x    C       118       31.016758   11.544177   12.896418   x
            x    C       119       39.086059   11.519528   12.901048   x
            x    C       120       49.855166   11.543946   12.898113   x
            x    C       121       57.925132   11.520129   12.898280   x
            x    C       122        1.426384   11.544237   12.894560   x
            x    C       123       33.717495   11.544690   12.896974   x
            x    C       124       41.787591   11.519226   12.901912   x
            x    C       125        6.796849   11.518991   12.894246   x
            x    C       126       22.945585   11.519508   12.890949   x
            x    C       127       25.647904   11.519162   12.892949   x
            x    C       128        9.499629   11.519203   12.892320   x
            x    C       129       45.814410   13.861185   12.895700   x
            x    C       130       43.143439   13.862356   12.899488   x
            x    C       131       51.195145   13.861379   12.895609   x
            x    C       132       59.281388   13.862935   12.896340   x
            x    C       133       35.058607   13.861743   12.894527   x
            x    C       134       53.866410   13.862590   12.897843   x
            x    C       135       61.953212   13.862002   12.891222   x
            x    C       136       29.676136   13.861568   12.890129   x
            x    C       137       37.729922   13.862643   12.900601   x
            x    C       138        2.767913   13.861545   12.890759   x
            x    C       139       27.004481   13.862431   12.890320   x
            x    C       140        5.439998   13.862226   12.893542   x
            x    C       141       10.856846   13.862314   12.889827   x
            x    C       142       47.154125   16.178410   12.903337   x
            x    C       143       55.223996   16.204690   12.893994   x
            x    C       144       41.786623   16.204265   12.897889   x
            x    C       145       49.855739   16.178907   12.903743   x
            x    C       146       39.086534   16.204486   12.897486   x
            x    C       147       63.294703   16.179234   12.900418   x
            x    C       148       31.016188   16.179416   12.900815   x
            x    C       149       57.924638   16.204515   12.894689   x
            x    C       150       33.718246   16.179111   12.901747   x
            x    C       151        6.797950   16.204424   12.889759   x
            x    C       152        1.426969   16.179448   12.900717   x
            x    C       153       25.646829   16.204706   12.888356   x
            x    C       154       22.945658   16.204446   12.887514   x
            x    C       155        9.499550   16.204337   12.888954   x
            x    C       156       51.211730   18.521580   12.898632   x
            x    C       157       45.797626   18.521467   12.899705   x
            x    C       158       43.126531   18.521271   12.895117   x
            x    C       159       53.882974   18.521400   12.892242   x
            x    C       160       35.075005   18.522489   12.898242   x
[...]
 C    69 -- C    91       -0.06      0.00      5.40754
 C    98 -- C   120       -0.06      0.00      5.40754
 C   150 -- C   176       -0.06     -0.00      5.40758
 C   175 -- C   206       -0.06      0.00      5.40767
 C   148 -- C   179       -0.06      0.00      5.40769
 C    63 -- C    87       -0.06      0.00      5.40772
 C   238 -- C   260       -0.06      0.00      5.40772
 C    90 -- C   123       -0.06      0.00      5.40773
 C    61 -- C   269       -0.06     -0.00      5.40774
 C    67 -- C    97       -0.06      0.00      5.40774
 C   244 -- C   271       -0.06      0.00      5.40776
 C    66 -- C    92       -0.06     -0.00      5.40779
 C   147 -- C   181       -0.06     -0.00      5.40781
 C   205 -- C   239       -0.06      0.00      5.40783
 C   243 -- C   270       -0.06      0.00      5.40784
 C   124 -- C   146       -0.06      0.00      5.40785
 C   236 -- C   261       -0.06      0.00      5.40790
 C   210 -- C   234       -0.06      0.00      5.40791
 C    62 -- C   265       -0.06     -0.00      5.40796
 C    59 -- C   267       -0.06     -0.00      5.40797
 C    55 -- C   262       -0.06      0.00      5.40798
 C    39 -- C    49       -0.06      0.00      5.40798
 C   152 -- C   178       -0.06     -0.00      5.40802
 C   126 -- C   153       -0.06      0.00      5.40804
 C   183 -- C   209       -0.06     -0.00      5.40805
 C    60 -- C    94       -0.06      0.00      5.40810
 C   207 -- C   240       -0.06      0.00      5.40814
 C   174 -- C   212       -0.06     -0.00      5.40814
 C   116 -- C   149       -0.06      0.00      5.40815
 C    96 -- C   118       -0.06      0.00      5.40815
 C    47 -- C   185       -0.06      0.00      5.40818
 C   184 -- C   214       -0.06      0.00      5.40819
 C    56 -- C   259       -0.06      0.00      5.40824
 C   127 -- C   154       -0.06      0.00      5.40824
 C    93 -- C   117       -0.06      0.00      5.40826
 C   217 -- C   232       -0.06      0.00      5.40828
 C   182 -- C   216       -0.06      0.00      5.40830
 C   128 -- C   151       -0.06      0.00      5.40830
 C    46 -- C   187       -0.06      0.00      5.40832
 C    88 -- C   122       -0.06      0.00      5.40832
 C   186 -- C   208       -0.06      0.00      5.40834
 C    57 -- C    95       -0.06     -0.00      5.40836
 C    40 -- C    48       -0.06      0.00      5.40836
 C   233 -- C   266       -0.06      0.00      5.40836
 C   215 -- C   237       -0.06      0.00      5.40843
 C   213 -- C   235       -0.06      0.00      5.40847
 C   125 -- C   155       -0.06      0.00      5.40852
 C    58 -- C    89       -0.06      0.00      5.40866
 C   241 -- C   263       -0.06      0.00      5.40872
 C    35 -- C    42       -0.06      0.00      5.40903
 C    36 -- C    41       -0.06      0.00      5.40912
 C   101 -- C   113       -0.06      0.00      5.41309
 C   257 -- C   258       -0.06      0.00      5.41328
 C   190 -- C   192       -0.06      0.00      5.41343
 C   130 -- C   137       -0.06      0.00      5.41344
 C   286 -- C   288       -0.06      0.00      5.41345
 C    82 -- C    84       -0.06      0.00      5.41347
 C   156 -- C   157       -0.06      0.00      5.41367
 C    37 -- C    38       -0.06      0.00      5.41417
 C   220 -- C   225       -0.06      0.00      5.41428
 C   105 -- C   111       -0.06      0.00      5.41430
 C    50 -- C   256       -0.06      0.00      5.41443
 C   160 -- C   164       -0.06      0.00      5.41450
 C   280 -- C   282       -0.06      0.00      5.41460
 C    77 -- C    85       -0.06      0.00      5.41477
 C   191 -- C   193       -0.06      0.00      5.41479
 C   132 -- C   134       -0.06      0.00      5.41496
 C   222 -- C   228       -0.06      0.00      5.41587
 C    43 -- C   139       -0.06      0.00      5.41590
 C   103 -- C   108       -0.06      0.00      5.41607
 C    74 -- C    76       -0.06      0.00      5.41607
 C   277 -- C   281       -0.06      0.00      5.41609
 C   163 -- C   165       -0.06      0.00      5.41623
 C   194 -- C   202       -0.06      0.00      5.41630
 C   249 -- C   251       -0.06      0.00      5.41632
 C   218 -- C   230       -0.06      0.00      5.41679
 C   140 -- C   141       -0.06      0.00      5.41705
 C   169 -- C   171       -0.06      0.00      5.41716
 C    73 -- C    75       -0.06      0.00      5.41723
 C   247 -- C   254       -0.06      0.00      5.41744
 C   199 -- C   201       -0.06      0.00      5.41746
 C   273 -- C   274       -0.06      0.00      5.41761
 C    33 -- C    34       -0.06      0.00      5.41811
=============================================================


============== Orbital energy and occupancy information for spin 1 =============

      Total number of orbitals:    2368
        Occupancy sum (kernel):    1110.480248186
   Occupancy sum (eigenvalues):    1110.480248186
                 HOMO-LUMO gap:      -0.000035960 Eh
                 Mid-gap level:      -0.158734901 Eh

                        Orbital | Energy (Eh) | Occupancy
                            1    -1.953351781   1.0000000
                        .......   ...........   .........
                         1102    -0.163872871   0.7895482
                         1103    -0.163864127   0.7889134
                         1104    -0.163855049   0.7884934
                         1105    -0.161493210   0.6622168
                         1106    -0.161489861   0.6620464
                         1107    -0.161467621   0.6606900
                         1108    -0.161461927   0.6603422
                         1109    -0.160522533   0.6007623
                         1110    -0.159746474   0.5506775
                         1111    -0.158752881   0.4811251
                        ....... -- gap at 0K -- .........
                         1112    -0.158716921   0.4848548
                         1113    -0.158711070   0.4844538
                         1114    -0.158697794   0.4835352
                         1115    -0.158691763   0.4831146
                         1116    -0.157971694   0.4345067
                         1117    -0.157968676   0.4342954
                         1118    -0.153494883   0.1826672
                         1119    -0.153475527   0.1818839
                         1120    -0.152681591   0.1509980
                         1121    -0.152628484   0.1491823
                        .......   ...........   .........
                         2368     0.721445798   0.0000000

================================================================================

============== Orbital energy and occupancy information for spin 2 =============

      Total number of orbitals:    2368
        Occupancy sum (kernel):    1110.480248106
   Occupancy sum (eigenvalues):    1110.480248106
                 HOMO-LUMO gap:       0.000993593 Eh
                 Mid-gap level:      -0.159249677 Eh

                        Orbital | Energy (Eh) | Occupancy
                            1    -1.953351782   1.0000000
                        .......   ...........   .........
                         1101    -0.163883272   0.7900042
                         1102    -0.163872871   0.7895482
                         1103    -0.163864127   0.7889134
                         1104    -0.163855049   0.7884934
                         1105    -0.161493210   0.6622168
                         1106    -0.161489861   0.6620464
                         1107    -0.161467621   0.6606900
                         1108    -0.161461927   0.6603422
                         1109    -0.160522533   0.6007623
                         1110    -0.159746474   0.5506775
                        ....... -- gap at 0K -- .........
                         1111    -0.158752881   0.4811251
                         1112    -0.158716921   0.4848548
                         1113    -0.158711070   0.4844538
                         1114    -0.158697794   0.4835351
                         1115    -0.158691763   0.4831146
                         1116    -0.157971694   0.4345067
                         1117    -0.157968676   0.4342954
                         1118    -0.153494883   0.1826672
                         1119    -0.153475527   0.1818839
                         1120    -0.152681591   0.1509980
                        .......   ...........   .........
                         2368     0.721445798   0.0000000

================================================================================

===================== Writing canonical molecular orbitals =====================
    Spin 1
| Orbital  Energy (eV)  Norm     |
| HOMO-5   -4.39436272  1.000000 | 
| HOMO-4   -4.39375753  1.000000 | 
| HOMO-3   -4.39360260  1.000000 | 
| HOMO-2   -4.36804037  1.000000 | 
| HOMO-1   -4.34692275  1.000000 | 
| HOMO     -4.31988570  1.000000 | 
| LUMO     -4.31890719  1.000000 | 
| LUMO+1   -4.31874798  1.000000 | 
| LUMO+2   -4.31838671  1.000000 | 
| LUMO+3   -4.31822259  1.000000 | 
| LUMO+4   -4.29862851  1.000000 | 
| LUMO+5   -4.29854639  1.000000 | 
================================================================================

===================== Writing canonical molecular orbitals =====================
    Spin 2
| Orbital  Energy (eV)  Norm     |
| HOMO-5   -4.39445385  1.000000 | 
| HOMO-4   -4.39436271  1.000000 | 
| HOMO-3   -4.39375753  1.000000 | 
| HOMO-2   -4.39360260  1.000000 | 
| HOMO-1   -4.36804037  1.000000 | 
| HOMO     -4.34692274  1.000000 | 
| LUMO     -4.31988570  1.000000 | 
| LUMO+1   -4.31890718  1.000000 | 
| LUMO+2   -4.31874798  1.000000 | 
| LUMO+3   -4.31838671  1.000000 | 
| LUMO+4   -4.31822259  1.000000 | 
| LUMO+5   -4.29862853  1.000000 | 
================================================================================
 
=============== Density of States (DOS) calculation for UP spin ================
Writing "graphite_UP_DOS.txt" ... done
================================================================================
 
============== Density of States (DOS) calculation for DOWN spin ===============
Writing "graphite_DN_DOS.txt" ... done
================================================================================
 
Writing bands to file "graphite.val_bands" ... done

IS: Calculating electrolyte contribution to the atomic forces ...
================================================================================
 
***********************************************************
********** Summary of Forces (values in Eh/a) *************
*                                                         *
* ---------------------- Minimum ------------------------ *
* Atom:       480, |F|min =    0.00004133                 *
* Components:     Fx|min       Fy|min       Fz|min        *
*              -0.00001150   0.00001254   0.00003767      *
*                                                         *
* ---------------------- Maximum ------------------------ *
* Atom:       320, |F|max =    0.00132751                 *
* Components:     Fx|max       Fy|max       Fz|max        *
*               0.00039913   0.00120105  -0.00040059      *
*                                                         *
* ---------------- Root Mean Square Force --------------- *
*                  |F|rms =    0.00051751                 *
* Components:     Fx|rms       Fy|rms       Fz|rms        *
*               0.00017819   0.00040150   0.00027362      *
***********************************************************
 

                                                      hartree           kcal/mol
IS: NB: Energy of pure electrolyte:         -0.08939665644891         -56.097248

------------------------------ TIMING INFORMATION ------------------------------
AVERAGE TIME:    4659.013s on    128 proc(s)                                    
TOTAL TIME:      4659.021s on    128 proc(s)                                    
================= AVERAGE TIMINGS FROM ALL PROCS (CUMULATIVE) ==================
|| TAG                                    #calls    cpu time   %total  Gflops ||
|| linalg_invert_sym_matrix             :     4        0.00s   0.000%  ------ || (1 procs only)
|| density_fftbox_interp_mult_imbal     :  6120        0.00s   0.000%  ------ ||
|| sparse_set_to_garbage                :    44        0.00s   0.000%  ------ ||
|| onetep.F90 final imbalance           :     1        0.01s   0.000%  ------ ||
|| ewald_calculate_forces_realspace     :     3        0.02s   0.000%  ------ ||
|| vdwcorrection_calculate_energy       :     3        0.02s   0.000%  ------ ||
|| vdwcorrection_calculate_forces       :     3        0.02s   0.000%  ------ ||
|| basis_extract_function_from_box      :   425        0.03s   0.001%  ------ ||
|| pseudopotentials_core_density        :     3        0.06s   0.001%  ------ ||
|| pseudopotentials_local_on_grid       :     3        0.06s   0.001%  ------ ||
|| parallel_prepare_fd_halos_alloc      : 16011        0.09s   0.002%  ------ ||
|| sparse_spam3toblacs_real_fast_imbal  :   574        0.10s   0.002%  ------ ||
|| onetep.F90 main loop imbalance       :     1        0.13s   0.003%  ------ ||
|| restart_hamiltonian_read             :     3        0.15s   0.003%  ------ ||
|| parallel_prepare_fd_halos_request    : 16011        0.15s   0.003%  ------ ||
|| pseudopotentials_nonlocal_mat        :     7        0.18s   0.004%  ------ ||
|| sparse_blacstospam3_real_fast_imbal  :   564        0.20s   0.004%  ------ ||
|| restart_hamiltonian_write            :     5        0.29s   0.006%  ------ ||
|| pseudo_make_structure_factor         :     3        0.40s   0.009%  ------ ||
|| sparse_spam3toblacs_real_fast_B2     : 73472        0.50s   0.011%  ------ ||
|| parallel_prepare_fd_halos_satisfy    : 16011        0.72s   0.015%  ------ ||
|| ngwf_gradient_coeffs                 :     5        0.91s   0.020%  ------ ||
|| sparse_init                          :     3        1.23s   0.026%  ------ ||
|| smeared_ion_generate_potential_PBC   :     3        1.32s   0.028%  ------ ||
|| restart_kernel_write                 :     8        1.34s   0.029%  ------ ||
|| pseudo_local_calculate_forces        :     3        1.61s   0.035%  ------ ||
|| projectors_func_ovlp_box_spam3       :     7        1.79s   0.038%  ------ ||
|| integrals_grad_spam3                 :     3        1.86s   0.040%  ------ ||
|| nonsc_forces_ngwfs_calc              :     3        1.90s   0.041%  ------ ||
|| sparse_embed_hotelling_invert_embed  :     7        1.95s   0.042%  ------ ||
|| density_init_guess_real              :     3        2.02s   0.043%  ------ ||
|| ewald_calculate_energy               :     3        2.05s   0.044%  ------ ||
|| pseudo_nlcc_calculate_forces         :     3        2.31s   0.050%  ------ ||
|| energy_and_force_init_cell           :     1        2.42s   0.052%  ------ ||
|| projectors_func_grad_ovlp_box_spam3  :     9        2.46s   0.053%  ------ ||
|| pseudo_nl_calculate_forces           :     3        2.79s   0.060%  ------ ||
|| fourier_filter_cell                  :   126        3.34s   0.072% 210.190 ||
|| projectors_init_fftbox_recip         :    36        3.49s   0.075%  ------ ||
|| restart_ngwfs_tightbox_input         :     3        4.09s   0.088%  ------ ||
|| function_ops_brappd_ketppd_spam3     :    11        4.15s   0.089%  ------ ||
|| fourier_apply_box_pair               :   465        4.22s   0.091%  1.778k ||
|| sparse_trace                         :  2166        4.35s   0.093%  ------ ||
|| eigenstates_calculate                :     1        4.46s   0.096%  ------ ||
|| boltzmann_init_steric_pot            :     3        5.60s   0.120%  ------ ||
|| parallel_prepare_fd_halos_comms_imbal: 16011        6.27s   0.135%  ------ ||
|| ewald_calculate_forces_recipspace    :     3        6.39s   0.137%  ------ ||
|| parallel_prepare_fd_halos_clear      : 16011        6.43s   0.138%  ------ ||
|| ewald_calculate_forces               :     3        6.43s   0.138%  ------ ||
|| integrals_kinetic_spam3              :     7        6.70s   0.144%  ------ ||
|| basis_copy_function_to_box           :  8491        7.04s   0.151%  ------ ||
|| parallel_prepare_fd_halos_comms_wait : 16011       10.83s   0.232%  ------ ||
|| sparse_product                       :  1211       15.63s   0.336%  ------ ||
|| projectors_gradient_batch            :    20       15.73s   0.338%  ------ ||
|| fourier_interpolate_cell             :   306       16.01s   0.344% 106.527 ||
|| fourier_apply_cell_backward          :  1275       20.94s   0.449% 171.249 ||
|| sparse_spam3toblacs_real_fast_B1     : 73472       24.16s   0.519%  ------ ||
|| parallel_prepare_fd_halos            : 16011       24.59s   0.528%  ------ ||
|| restart_ngwfs_tightbox_output        :     3       25.01s   0.537%  ------ ||
|| sparse_spam3toblacs_real_fast        :   574       25.82s   0.554%  ------ ||
|| basis_dot_function_with_box          : 1.563M      28.66s   0.615%  ------ ||
|| properties_calculate                 :     1       30.54s   0.656%  ------ ||
|| cell_grid_extract_box_real           :  2520       31.12s   0.668%  ------ ||
|| sparse_blacstospam3_real_fast        :   564       44.34s   0.952%  ------ ||
|| xc_energy_potential                  :   156       46.39s   0.996%  ------ ||
|| fourier_apply_cell_forward           :  1263       62.97s   1.352%  56.407 ||
|| ngwf_gradient_build_batch            :    20       67.53s   1.450%  ------ ||
|| cell_grid_deposit_box_real           :  6630       72.51s   1.556%  ------ ||
|| finite_difference_derivative         : 16011       75.23s   1.615%  ------ ||
|| basis_add_function_to_box            : 4.485M      84.40s   1.812%  ------ ||
|| dense_eigensolve                     :   280       95.72s   2.055%  ------ ||
|| ngwf_gradient_batch                  :    20      102.91s   2.209%  ------ ||
|| ngwf_gradient_lnv                    :     5      107.05s   2.298%  ------ ||
|| hamiltonian_energy_components        :     3      108.14s   2.321%  ------ ||
|| integrals_locpot_mat_els_batch       :   232      113.99s   2.447%  ------ ||
|| edft_diag_ngwf_ham                   :   278      119.88s   2.573%  ------ ||
|| implicit_solvent_boltzmann_forces    :     3      165.54s   3.553%  ------ ||
|| edft_apply_smearing_operator         :   139      181.93s   3.905%  ------ ||
|| density_batch_row_sums               :   612      210.78s   4.524%  ------ ||
|| density_fftbox_deposit_to_cell       :  6120      272.10s   5.840%  ------ ||
|| smeared_ion_force_correction         :     6      298.70s   6.411%  ------ ||
|| implicit_solvent_soft_sphere_forces  :     3      317.43s   6.813%  ------ ||
|| potential_apply_to_ngwf_batch        :   232      458.00s   9.830%  ------ ||
|| fourier_apply_box                    : 17336      553.60s  11.882%  2.471k ||
|| integrals_locpot_dbl_grid            :   116      572.76s  12.294%  ------ ||
|| density_fftbox_interpolate_multiply  :  6120      651.10s  13.975%  ------ ||
|| dl_mg_solver_calls                   :   153      710.37s  15.247%  ------ ||
|| multigrid_calculate_hartree          :   153      726.87s  15.601%  ------ ||
|| forces_calculate                     :     3      827.50s  17.761%  ------ ||
|| density_batch_interp_deposit         :   612     1259.47s  27.033%  ------ ||
|| density_on_dbl_grid                  :   306     1572.34s  33.748%  ------ ||
|| hamiltonian_lhxc_calculate           :   147     2347.23s  50.380%  ------ ||
|| edft_calculate                       :     5     2968.72s  63.720%  ------ ||
|| ngwf_cg_optimise                     :     3     3254.46s  69.853%  ------ ||
|| energy_and_forces                    :     3     4642.99s  99.656%  ------ ||
|| total_time                           :     1     4659.01s 100.000%  ------ ||
================================================================================
Overhead of generating timer report: 
- 0 ms averaging over threads,
- 11 ms ensuring consistency across MPI ranks,
- 37 ms printing in order.

Job completed: 01-11-2023 00:52 (+0000)

