==================================================================================
It's Tue 10 Oct 2023 10:48:42 AM BST.
*** Starting onetep_launcher (node nid002630, PIDs 232104 232105 232106 232107 232108 232109 232110 232111 232112 232113 232114 232115 232116 232117 232118 232119)...
    - ONETEP arguments: graphite.dat
    - Current directory: /mnt/lustre/a2fs-work3/work/e89/e89/arihant/linuc/theta/128/0.0
    - Launcher executable directory: /mnt/lustre/a2fs-work3/work/e89/e89/arihant/onetep/utils
    - (-e) ONETEP executable specified through command-line: /work/e89/e89/arihant/onetep/bin/onetep.archer2_2023_cray
      ... trying /work/e89/e89/arihant/onetep/bin/onetep.archer2_2023_cray
          -> looks OK
*** Setting up environment...
    - (-s) Process stack size: unlimited
    - (-t) OMP_NUM_THREADS: 8
    - (-o) OMP_STACKSIZE: 64M
    - (-c) Maximum core file size: 2048000
    - (-d) decfort_dump_flag: n
    - (-m) I_MPI_OFA_TRANSLATION_CACHE: 0
    - (-m) I_MPI_DAPL_TRANSLATION_CACHE: 0
    - (-m) I_MPI_DAPL_UD_TRANSLATION_CACHE: 0
*** Starting ONETEP...
    - /work/e89/e89/arihant/onetep/bin/onetep.archer2_2023_cray graphite.dat
=================================================================================
_________________________________________________________________________________
 +---------------------------------------------------------------+
 |                                                               |
 |        ####### #     # ####### ####### ####### ######         |
 |        #     # ##    # #          #    #       #     #        |
 |        #     # # #   # #          #    #       #     #        |
 |        #     # #  #  # #####      #    #####   ######         |
 |        #     # #   # # #          #    #       #              |
 |        #     # #    ## #          #    #       #              |
 |        ####### #     # #######    #    ####### #              |
 |                                                               |
 |        Linear-Scaling Ab Initio Total Energy Program          |
 |                                                               |
 |          Release for academic collaborators of ODG            |
 |                                             Version 6.1.59    |
 | Remote: https://github.com/onetep-devel/onetep.git            |
 | Local branch: master                                          |
 | Commit ID: 3df6b8ca88fa1735659d3248d54c94b50edec21b           |
 | Date: Thu Oct 5 13:49:52 2023 +0200                           |
 | Working tree clean                                            |
 |                                                               |
 +---------------------------------------------------------------+
 |                                                               |
 |  Authors:                                                     |
 |  Jacek Dziedzic, Peter D. Haynes, Nicholas D. M. Hine,        |
 |  Arash A. Mostofi, Mike C. Payne and Chris-Kriton Skylaris    |
 |                                                               |
 |  Contributors:                                                |
 |  J. Aarons, L. Andrinopoulos, P. W. Avraam, R. A. Bell,       |
 |  A. Bhandari, G. A. Bramley, R. J. Charlton, S. J. Clark,     |
 |  R. J. Clements, G. C. Constantinescu, F. Corsetti,           |
 |  N. Corsini, O. Dieguez, S. M. M. Dubois, K. K. B. Duff,      |
 |  J. M. Escartin, M. Escobar Azor, A. Greco,                   |
 |  H. Helal, Q. O. Hill, L. P. Lee, J.-H. Li,                   |
 |  E. B. Linscott, G. Moynihan, D. D. O`Regan,                  |
 |  O. K. Okan, M. J. S. Phipps, C. J. Pickard,                  |
 |  J. C. A. Prentice, M. I. J. Probert, L. E. Ratcliff,         |
 |  M. Robinson, A. Ruiz Serrano, M. dos Santos Dias,            |
 |  J. S. Spencer, E. W. Tait, G. Teobaldi, D. Turban,           |
 |  V. Vitale, K. A. Wilkinson, C. Weber, J. C. Womack,          |
 |  N. Yeung and T. J. Zuehlsdorff                               |
 |                                                               |
 |                                   Copyright (c) 2004-2023     |
 |                                                               |
 |  Please cite:                                                 |
 |  "The ONETEP linear-scaling density functional theory program"|
 |   J. Chem. Phys. 152(17) 174111 (2020)                        |
 |                                                               |
 |          in all publications arising from your use of ONETEP. |
 |                                                               |
 +---------------------------------------------------------------+
 |                                                               |
 |   ONETEP is based on developments described in the following  |
 |   publications:                                               |
 |                                                               |
 |  "Nonorthogonal generalized Wannier function pseudopotential  |
 |   plane-wave method".                                         |
 |   C.-K. Skylaris, A. A. Mostofi, P. D. Haynes, O. Dieguez,    |
 |   M. C. Payne.                                                |
 |   Phys. Rev. B 66 035119 (2002).                              |
 |                                                               |
 |  "Preconditioned iterative minimization for linear-scaling    |
 |   electronic structure calculations".                         |
 |   A. A. Mostofi, P. D. Haynes, C.-K. Skylaris, M. C. Payne.   |
 |   J. Chem. Phys. 119(17), pp.8842-8848 (2003).                |
 |                                                               |
 |  "Total-energy calculations on a real space grid with         |
 |   localized functions and a plane-wave basis".                |
 |   A. A. Mostofi, C.-K. Skylaris, P. D. Haynes, M. C. Payne.   |
 |   Comput. Phys. Commun. 147, pp.788-802 (2002).               |
 |                                                               |
 |  "Accurate kinetic energy evaluation in electronic structure  |
 |   calculations with localized functions on real space grids"  |
 |   C.-K. Skylaris, A. A. Mostofi, P. D. Haynes, C. J. Pickard, |
 |   M. C. Payne.                                                |
 |   Comput. Phys. Commun. 140, pp.315-322 (2001).               |
 |                                                               |
 |  "Accurate ionic forces and geometry optimization in linear-  |
 |   scaling density-functional theory with local orbitals"      |
 |   N. D. M. Hine, M. Robinson, P. D. Haynes, C.-K. Skylaris,   |
 |   M. C. Payne, and A. A. Mostofi.                             |
 |   Phys. Rev. B 83 195102 (2011).                              |
 |                                                               |
 +---------------------------------------------------------------+

Job started: 10-10-2023 10:48 (+0100)
 
Reading parameters from file "graphite.dat" ...... done

If your calculation crashes here, before "Checking processes and threads..."
is displayed, then your stack size is insufficient.
If so, use "ulimit -s unlimited" at runtime.
You can disable this check with "check_stack_size F".

Checking processes and threads...
   Determining the default number of threads...
      No default threads set at compilation time: defaulting to 1.
      OpenMP library call suggests 8 threads.
      Hybrid MPI-OpenMP compilation detected.
      Number of MPI processes > 1.
      OMP_NUM_THREADS environment variable present and
      its value matches the one obtained from the OpenMP library call.
      Using this value as default.
      Default threads: 8
      Default applies to threads_max and threads_num_fftboxes.
      Settings in the input file override this default.
   ... done

   Running with 128 MPI processes.
   There are 16 MPI processes running on the same node as the root process.
   Each MPI process is using: 
               1 threads for simulation cell FFTs.
               1 threads for parallel FFT box operations.
               8 threads for loops over batched FFT box operations.
               8 threads in other parallel regions.
   MPI Interface: S1 (use mpi_f08) (-DMPI -DUSE_MPI_F08).
   MPI_ASYNC_PROTECTS_NONBLOCKING: Yes. MPI_SUBARRAYS_SUPPORTED: Yes.
   GPU Interface: None.
... done

Basic input checks...
Resetting ngwf_cg_rotate to TRUE for EDFT calculations
... done

Reading geometry and species blocks from file "graphite.dat" ...
  Reading POSITIONS geometry from str.xyz

  <species_atomic_set> block not found: NGWF initialisation set to SOLVE
IS: Dielectric excluded regions:
    - NONE.
IS: Assigning soft sphere radii for soft sphere solvation...
IS: No soft sphere radii specified. Default Alvarez radii used for all atoms.

----------- SOFT SPHERE RADII -----------
Li  5.333
C   4.442
-----------------------------------------

    
  Number of PPD points along a3 set to 1.  This is 
  the default value, it may have been provided also in the input file.
... done


--------------------------------------------------------------------------------
---------------------------------- INPUT FILE ----------------------------------
--------------------------------------------------------------------------------

task geometryoptimization                                                       
geom_method LBFGS                                                               
geom_continuation T                                                             
write_xyz T                                                                     
edft_grand_canonical T                                                          
edft_reference_potential  -4.42 eV                                              
edft_electrode_potential 0.0 V                                                  
edft_nelec_thres 0.000001                                                       
is_dielectric_function soft_sphere                                              
is_implicit_solvent T                                                           
is_smeared_ion_rep T                                                            
is_include_apolar T                                                             
is_solvation_properties F                                                       
is_pbe                    full                                                  
is_pbe_temperature        298.15                                                
is_pbe_bc_debye_screening T                                                     
is_pbe_neutralisation_scheme counterions_auto                                   
is_pbe_energy_tolerance 1E+50                                                   
is_bc_coarseness 5                                                              
is_bc_threshold 1E-9                                                            
is_bulk_permittivity 90.7                                                       
is_solvent_surf_tension 0.0506 N/m                                              
%block sol_ions                                                                 
Li  +1 1.0                                                                      
PF6 -1 1.0                                                                      
%endblock sol_ions                                                              
is_steric_pot_type M                                                            
is_hc_steric_dens_isovalue  0.001                                               
is_hc_steric_smearing         0.4 bohr                                          
is_steric_write T                                                               
%block species_solvent_radius                                                   
Li 3.0                                                                          
C 3.0                                                                           
%endblock species_solvent_radius                                                
multigrid_bc:   P P P                                                           
ion_ion_bc:     P P P                                                           
pspot_bc:       P P P                                                           
smeared_ion_bc: P P P                                                           
mg_max_iters_vcycle 500                                                         
mg_vcyc_smoother_iter_pre 4                                                     
mg_vcyc_smoother_iter_post 4                                                    
mg_max_res_ratio 1000.0                                                         
mg_max_iters_newton 300                                                         
edft                    : T                                                     
edft_smearing_width     : 0.1 eV                                                
spin                    : 0.0                                                   
edft_spin_fix           : 2                                                     
spin_polarized          : T                                                     
cutoff_energy :  1000 eV                                                        
kernel_cutoff : 1000 bohr                                                       
xc_functional PBE                                                               
dispersion 4                                                                    
output_detail VERBOSE                                                           
do_properties T                                                                 
cube_format F                                                                   
dx_format F                                                                     
write_denskern T                                                                
write_tightbox_ngwfs T                                                          
write_hamiltonian T                                                             
%block species                                                                  
Li Li 3  5  8.0                                                                 
C  C  6  4  8.0                                                                 
%endblock species                                                               
%block species_pot                                                              
Li '/work/e89/e89/arihant/pseudo/Li.usp'                                        
C '/work/e89/e89/arihant/pseudo/C.usp'                                          
%endblock species_pot                                                           
%BLOCK LATTICE_CART                                                             
ang                                                                             
34.16920551     0.00000000     0.00000000                                       
0.00000000    19.72760000     0.00000000                                        
0.00000000     0.00000000   100.02798000                                        
%ENDBLOCK LATTICE_CART                                                          
positions_xyz_file str.xyz                                                      
     Hash =   000005842597090887408193

--------------------------------------------------------------------------------
-------------------------------- END INPUT FILE --------------------------------
--------------------------------------------------------------------------------


 
 ESDF WARNING(1): "ispbeenergytolerance" (esdf_physical) has no units. Assume "hartree".
<<<<<<<<<<<<<<<<<<<<<<<<<<<<<<<<< Full system >>>>>>>>>>>>>>>>>>>>>>>>>>>>>>>>>>
<<<<<<<<<<<<<<<<<<<<<<<<< Pseudopotential information >>>>>>>>>>>>>>>>>>>>>>>>>>
File: /work/e89/e89/arihant/pseudo/Li.usp [ 2001 points up to Gmax=  52.9 (1/bohr)]
  Atomic number:  3;  ionic charge:  3.000000
    Shell 1: l = 0; rc = 1.19 bohr
    Shell 2: l = 0; rc = 1.25 bohr
File: /work/e89/e89/arihant/pseudo/C.usp [ 2001 points up to Gmax=  52.9 (1/bohr)]
  Atomic number:  6;  ionic charge:  4.000000
    Shell 1: l = 0; rc = 1.19 bohr
  Core charge supplied for Nonlinear Core Corrections
<<<<<<<<<<<<<<<<<<<<<<<<<<<<<<<<<<<<<<<<>>>>>>>>>>>>>>>>>>>>>>>>>>>>>>>>>>>>>>>>

-------------------------- Atom counting information ---------------------------
Symbol    Natoms    Nngwfs    Nprojs
  Li       128       640       256
  C        512      2048       512
.......   ......    ......    ......
Totals:    640      2688       768
--------------------------------------------------------------------------------

=============================== PSINC grid sizes ===============================
                      Simulation cell:  143 x  91 x 416
                              FFT-box:  117 x  91 x 117
                                  PPD:   11 x   7 x   1
Grid space d1=  0.451541543008a0 (KE cutoff=  37.25706Eh =1013.81618eV)
Grid space d2=  0.409667706512a0 (KE cutoff=  45.26271Eh =1231.66098eV)
Grid space d3=  0.454388192297a0 (KE cutoff=  36.79171Eh =1001.15326eV)
================================================================================
  
WARNING in cell_grid_distribute:
Average of less than one 23-slab per proc, so workload cannot be
equally balanced between procs.

********************* Fourier parallelisation information **********************
       Coarse grid (whole simulation cell) dimensions:    143    91   416
          Real-space ('12') slabs/proc (min max mean):      3     4     3
         Recip-space ('23') slabs/proc (min max mean):      0     1     0
********************************************************************************

********************* Fourier parallelisation information **********************
       Double grid (whole simulation cell) dimensions:    286   182   832
          Real-space ('12') slabs/proc (min max mean):      6     7     6
         Recip-space ('23') slabs/proc (min max mean):      1     2     1
********************************************************************************

********************* Fourier parallelisation information **********************
         Fine grid (whole simulation cell) dimensions:    288   184   832
          Real-space ('12') slabs/proc (min max mean):      6     7     6
         Recip-space ('23') slabs/proc (min max mean):      1     2     1
         Grid scale modified to satisfy multigrid solver grid constraints
         Grid scale values after modifification:         2.01  2.02  2.00
********************************************************************************
ONETEP fine grid is 288 x 184 x 832 gridpoints, 64.5704 x 37.2798 x 189.0255 bohr.
FD multigrid is     288 x 184 x 832 gridpoints, 64.5704 x 37.2798 x 189.0255 bohr.


Atom SCF Calculation for Li : Z (AE atom) =   3 : Z (PS atom) =   3
Config String:
Orbitals (num,occ):  3     2.00 1.00 0.00
Orbitals   (num,l):  3        0    0    1
Real-space Grid (nr,dr,rmax): 1343    0.0059612519    8.0000000000
Spherical Bessel Basis (nsws,lmax,cutoff):   37    1  220.4959463253
Confining potential (l,width,scale):  0    3.0000000000  100.0000000000
Confining potential (l,width,scale):  1    3.0000000000  100.0000000000
  1         -3.7050169094   -5.2301177776    2.5388568852   -0.9989538802
  2         -6.0510920273   -4.2679357854    3.2724001845   -1.3422946715
  3         -6.7975021434   -3.8722499620    3.6648237887   -1.5325279919
  4         -7.0147472228   -3.7673066376    3.7864613280   -1.5966989055
  5         -7.0774132854   -3.7446783348    3.8157063634   -1.6161454686
  6         -7.0951992563   -3.7420177453    3.8204515040   -1.6217593843
  7         -7.1001226024   -3.7430426481    3.8200527077   -1.6233132433
  8         -7.1014239576   -3.7441529610    3.8191274553   -1.6237164860
  9         -7.1017352306   -3.7448434699    3.8184905098   -1.6238077213
 10         -7.1017916056   -3.7452114113    3.8181373932   -1.6238209669
 11         -7.1017908912   -3.7453946820    3.8179578223   -1.6238181917
 12         -7.1017822190   -3.7454828903    3.8178702968   -1.6238141227
 13         -7.1017768840   -3.7455162316    3.8178369316   -1.6238119017
 14         -7.1017732849   -3.7455353767    3.8178176959   -1.6238104459
 15         -7.1017709700   -3.7455463461    3.8178066371   -1.6238095253
 16         -7.1017695244   -3.7455526225    3.8178002910   -1.6238089565
 17         -7.1017686390   -3.7455562110    3.8177966534   -1.6238086105
 18         -7.1017681040   -3.7455582619    3.8177945697   -1.6238084022
 19         -7.1017677838   -3.7455594341    3.8177933764   -1.6238082778
 20         -7.1017675934   -3.7455601042    3.8177926929   -1.6238082039
 21         -7.1017674808   -3.7455604874    3.8177923014   -1.6238081602
 22         -7.1017674145   -3.7455607066    3.8177920771   -1.6238081344
Atom SCF converged after  22 iterations to a total energy of     -7.10176741

Atom SCF Calculation for C  : Z (AE atom) =   6 : Z (PS atom) =   4
Config String:
Orbitals (num,occ):  2     2.00 2.00
Orbitals   (num,l):  2        0    1
Real-space Grid (nr,dr,rmax): 1343    0.0059612519    8.0000000000
Spherical Bessel Basis (nsws,lmax,cutoff):   37    1  220.4959463253
Confining potential (l,width,scale):  0    3.0000000000  100.0000000000
Confining potential (l,width,scale):  1    3.0000000000  100.0000000000
  1         -5.8177092822   -1.2555419264    4.5135233515   -1.7471920893
  2         -5.6032261188   -1.3440047989    4.4246587726   -1.7090653419
  3         -5.5936068668   -1.3561735374    4.4140765627   -1.7034094417
  4         -5.5958505747   -1.3587284552    4.4121342699   -1.7022848669
  5         -5.5969687665   -1.3601698222    4.4109982405   -1.7017057890
  6         -5.5975400979   -1.3609792837    4.4103423276   -1.7013975981
  7         -5.5978435204   -1.3614297943    4.4099696476   -1.7012314972
  8         -5.5980096069   -1.3616786122    4.4097605138   -1.7011416075
  9         -5.5981021113   -1.3618152853    4.4096441572   -1.7010929151
 10         -5.5981539939   -1.3618900852    4.4095797860   -1.7010665406
 11         -5.5981831160   -1.3619309228    4.4095443105   -1.7010522599
 12         -5.5981994243   -1.3619531807    4.4095248124   -1.7010445305
 13         -5.5982085235   -1.3619652972    4.4095141175   -1.7010403487
 14         -5.5982135796   -1.3619718867    4.4095082606   -1.7010380870
 15         -5.5982163780   -1.3619754676    4.4095050573   -1.7010368642
 16         -5.5982179208   -1.3619774123    4.4095033073   -1.7010362032
 17         -5.5982187685   -1.3619784678    4.4095023522   -1.7010358460
 18         -5.5982192328   -1.3619790404    4.4095018314   -1.7010356530
 19         -5.5982194864   -1.3619793509    4.4095015476   -1.7010355488
 20         -5.5982196245   -1.3619795192    4.4095013931   -1.7010354925
 21         -5.5982196995   -1.3619796104    4.4095013090   -1.7010354621
Atom SCF converged after  21 iterations to a total energy of     -5.59821970

BC: Task: GEOMETRYOPTIMIZATION
BC: +++++++++++++++ Summary of boundary conditions ++++++++++++++
BC: |       Component       |     Keyword     |   Periodicity   |
BC: |                       |                 |     X  Y  Z [1] |
BC: |-----------------------------------------------------------|
BC: | Ion-ion               | ion_ion_bc [2]  |     P  P  P     |
BC: | Local pseudopotential | pspot_bc [3]    |     P  P  P     |
BC: | Multigrid solver      | multigrid_bc    |     P  P  P     |
BC: | Smeared ions          | smeared_ion_bc  |     P  P  P     |
BC: | Van der Waals         | vdw_bc          |     P  P  P     |
BC: +++++++++++++++++++++++++++++++++++++++++++++++++++++++++++++
BC: P: Periodic, O: Open.
BC: [1] Not strictly along X, Y, Z but rather along lattice vectors A1, A2, A3.
BC: [2] Also affected by: pbc_correction_cutoff, cutoff_coulomb_type,
BC:     is_smeared_ion_rep, is_implicit_solvent, openbc_ion_ion.
BC: [3] Also affected by: is_smeared_ion_rep, is_implicit_solvent, openbc_pspot.

================================================================================
<<<<<<<<<<<<<<<< Resuming previous ONETEP Geometry Optimisation >>>>>>>>>>>>>>>>
================================================================================

 Geometry Optimisation: output file is "graphite.geom"
 
 Reading continuation file "graphite.continuation" ...done
 Geometry Optimisation: read_tightbox_ngwfs parameter over-ridden to TRUE
 Geometry Optimisation: read_hamiltonian parameter over-ridden to T
 
                           -------------------------------
                                     Cell Contents
                           -------------------------------
 
            xxxxxxxxxxxxxxxxxxxxxxxxxxxxxxxxxxxxxxxxxxxxxxxxxxxxxxxxxxxx
            x  Element    Atom      Absolute co-ordinates of atoms     x
            x            Number        x           y           z       x
            x----------------------------------------------------------x
            x    Li        1        0.060731   37.177341   16.276029   x
            x    Li        2        0.059979   27.856048   16.278228   x
            x    Li        3        0.060526   18.534865   16.276294   x
            x    Li        4        0.060601    9.216358   16.275430   x
            x    Li        5        0.059412   32.515542   16.279145   x
            x    Li        6        0.059909   23.197928   16.280039   x
            x    Li        7        0.060074   13.876681   16.275191   x
            x    Li        8        0.059914    4.555997   16.278887   x
            x    Li        9        8.143412   37.178396   16.279180   x
            x    Li       10        8.143180   27.856414   16.279576   x
            x    Li       11        8.143091   18.535136   16.278793   x
            x    Li       12        8.143277    9.217131   16.276625   x
            x    Li       13        8.143971   32.515211   16.277484   x
            x    Li       14        8.143784   23.196942   16.279132   x
            x    Li       15        8.144108   13.876151   16.273332   x
            x    Li       16        8.143468    4.555361   16.278432   x
            x    Li       17       16.233085    9.217969   16.248337   x
            x    Li       18       16.233258   18.533619   16.269706   x
            x    Li       19       16.233068   27.855994   16.276858   x
            x    Li       20       16.232729   37.176593   16.279376   x
            x    Li       21       16.232351   32.515545   16.279537   x
            x    Li       22       16.232667   23.197364   16.281190   x
            x    Li       23       16.233042   13.877433   16.270394   x
            x    Li       24       16.233994    4.558213   16.280337   x
            x    Li       25       24.319692   32.515298   16.274402   x
            x    Li       26       24.319474   23.197461   16.275439   x
            x    Li       27       24.318774   13.876788   16.271840   x
            x    Li       28       24.318277    4.556191   16.278581   x
            x    Li       29       24.319025   37.177560   16.278215   x
            x    Li       30       24.319479   27.856147   16.278934   x
            x    Li       31       24.318928   18.535089   16.278824   x
            x    Li       32       24.319044    9.216307   16.277526   x
            x    Li       33       32.395004   37.177372   16.276284   x
            x    Li       34       32.395035   27.856091   16.275241   x
            x    Li       35       32.395295   18.535379   16.276387   x
            x    Li       36       32.394785    9.216694   16.278672   x
            x    Li       37       32.395431   32.515386   16.278487   x
            x    Li       38       32.395485   23.197787   16.279746   x
            x    Li       39       32.394883   13.876588   16.276188   x
            x    Li       40       32.395407    4.555619   16.279540   x
            x    Li       41       40.456008   32.515410   16.271992   x
            x    Li       42       40.454188   23.197747   16.277054   x
            x    Li       43       40.454506   13.877070   16.276785   x
            x    Li       44       40.454462    4.555999   16.278738   x
            x    Li       45       40.455483   37.177126   16.277776   x
            x    Li       46       40.455440   27.855949   16.277176   x
            x    Li       47       40.455908   18.535221   16.278493   x
            x    Li       48       40.456057    9.216316   16.276796   x
            x    Li       49       48.505117   37.176482   16.267839   x
            x    Li       50       48.505222   27.857598   16.246518   x
            x    Li       51       48.504534   18.534545   16.278080   x
            x    Li       52       48.504508    9.216871   16.275769   x
            x    Li       53       48.504602   32.515642   16.272208   x
            x    Li       54       48.505938   23.200338   16.279838   x
            x    Li       55       48.504665   13.876490   16.274985   x
            x    Li       56       48.504744    4.554947   16.279087   x
            x    Li       57       56.559202   32.515873   16.270361   x
            x    Li       58       56.558863   23.197646   16.276963   x
            x    Li       59       56.560281   13.876506   16.273596   x
            x    Li       60       56.560235    4.555887   16.275114   x
            x    Li       61       56.559843   37.177352   16.277892   x
            x    Li       62       56.559980   27.855681   16.278459   x
            x    Li       63       56.560056   18.535274   16.277442   x
            x    Li       64       56.560275    9.216638   16.276092   x
            x    Li       65        4.100037   34.845624   16.278779   x
            x    Li       66        4.100655   25.524622   16.279321   x
            x    Li       67        4.100691   16.205404   16.279752   x
            x    Li       68        4.100077    6.886641   16.278453   x
            x    Li       69        4.100232   30.186819   16.278753   x
            x    Li       70        4.099814   20.866505   16.281144   x
            x    Li       71        4.100427   11.544935   16.277022   x
            x    Li       72        4.100323    2.226029   16.279900   x
            x    Li       73       12.188299   34.845847   16.280014   x
            x    Li       74       12.188401   25.525055   16.279670   x
            x    Li       75       12.188087   16.206369   16.275651   x
            x    Li       76       12.189099    6.887542   16.275537   x
            x    Li       77       12.188457   30.186362   16.279198   x
            x    Li       78       12.188632   20.866234   16.281577   x
            x    Li       79       12.188884   11.544227   16.271895   x
            x    Li       80       12.188040    2.225505   16.279525   x
            x    Li       81       20.275565    6.888963   16.253948   x
            x    Li       82       20.276480   16.205370   16.269501   x
            x    Li       83       20.276574   25.525228   16.277565   x
            x    Li       84       20.277224   34.845223   16.281314   x
            x    Li       85       20.277096   30.186232   16.278257   x
            x    Li       86       20.277196   20.865767   16.281293   x
            x    Li       87       20.277136   11.544417   16.272962   x
            x    Li       88       20.277028    2.227316   16.280375   x
            x    Li       89       28.358115   30.186478   16.275356   x
            x    Li       90       28.358289   20.866563   16.277436   x
            x    Li       91       28.356594   11.545229   16.275854   x
            x    Li       92       28.357894    2.225759   16.278080   x
            x    Li       93       28.358468   34.845701   16.278005   x
            x    Li       94       28.358462   25.524831   16.278232   x
            x    Li       95       28.358024   16.205668   16.279259   x
            x    Li       96       28.358465    6.886549   16.277902   x
            x    Li       97       36.425654   34.845654   16.278583   x
            x    Li       98       36.425017   25.525558   16.276757   x
            x    Li       99       36.425345   16.206365   16.277719   x
            x    Li      100       36.425649    6.886894   16.278887   x
            x    Li      101       36.426981   30.186113   16.278826   x
            x    Li      102       36.426436   20.866665   16.280311   x
            x    Li      103       36.426310   11.544884   16.274952   x
            x    Li      104       36.426413    2.225158   16.278921   x
            x    Li      105       44.479576   30.186316   16.269755   x
            x    Li      106       44.477803   20.866387   16.277853   x
            x    Li      107       44.478301   11.545025   16.278285   x
            x    Li      108       44.478458    2.226080   16.279977   x
            x    Li      109       44.479776   34.845842   16.273834   x
            x    Li      110       44.481048   25.525255   16.275724   x
            x    Li      111       44.480273   16.206009   16.278634   x
            x    Li      112       44.480143    6.886715   16.276748   x
            x    Li      113       52.528983   34.845299   16.268475   x
            x    Li      114       52.527791   25.527815   16.252218   x
            x    Li      115       52.528875   16.205470   16.280526   x
            x    Li      116       52.528933    6.887132   16.277301   x
            x    Li      117       52.528973   30.185619   16.275200   x
            x    Li      118       52.529571   20.868069   16.280643   x
            x    Li      119       52.529584   11.544627   16.274474   x
            x    Li      120       52.528986    2.224716   16.279092   x
            x    Li      121       60.590363   30.186596   16.275381   x
            x    Li      122       60.591659   20.866253   16.278273   x
            x    Li      123       60.591912   11.544971   16.275824   x
            x    Li      124       60.592149    2.225948   16.277386   x
            x    Li      125       60.591712   34.845414   16.279419   x
            x    Li      126       60.592357   25.524976   16.279491   x
            x    Li      127       60.592578   16.206025   16.277879   x
            x    Li      128       60.592483    6.886614   16.276760   x
            x    C       129       41.778448    2.198581    6.307386   x
            x    C       130       49.850374    2.198567    6.308047   x
            x    C       131       57.922013    2.198594    6.308420   x
            x    C       132       12.181319    2.198487    6.310083   x
            x    C       133       20.252224    2.198488    6.310395   x
            x    C       134        4.110428    2.198524    6.309823   x
            x    C       135       28.323321    2.198479    6.309775   x
            x    C       136       36.394842    2.198555    6.309234   x
            x    C       137       44.466697    2.198564    6.309628   x
            x    C       138       52.538558    2.198617    6.310402   x
            x    C       139       60.609979    2.198597    6.310422   x
            x    C       140        1.422601    2.198506    6.307771   x
            x    C       141        9.493502    2.198466    6.307921   x
            x    C       142       17.564379    2.198540    6.308232   x
            x    C       143       25.635343    2.198497    6.308147   x
            x    C       144       33.706700    2.198543    6.307117   x
            x    C       145       29.670950    4.528480    6.307365   x
            x    C       146       37.742527    4.528519    6.306840   x
            x    C       147       45.814426    4.528547    6.307621   x
            x    C       148        8.145913    4.528475    6.310187   x
            x    C       149       53.886278    4.528585    6.308509   x
            x    C       150        0.074998    4.528511    6.310291   x
            x    C       151       16.216778    4.528523    6.309790   x
            x    C       152       24.287725    4.528500    6.310063   x
            x    C       153       32.359045    4.528522    6.309030   x
            x    C       154       40.430736    4.528564    6.308973   x
            x    C       155       48.502671    4.528547    6.310082   x
            x    C       156       56.574383    4.528593    6.310583   x
            x    C       157       61.957541    4.528569    6.308397   x
            x    C       158        5.458036    4.528479    6.308203   x
            x    C       159       13.528919    4.528481    6.307872   x
            x    C       160       21.599797    4.528484    6.307958   x
            x    C       161       25.635332    6.858497    6.307664   x
            x    C       162       33.706734    6.858464    6.306571   x
            x    C       163        4.110442    6.858496    6.310525   x
            x    C       164       41.778468    6.858488    6.306724   x
            x    C       165       49.850394    6.858510    6.307978   x
            x    C       166       12.181355    6.858495    6.309532   x
            x    C       167       20.252168    6.858474    6.309293   x
            x    C       168       28.323327    6.858509    6.309493   x
            x    C       169       36.394855    6.858490    6.308567   x
            x    C       170       44.466690    6.858501    6.309212   x
            x    C       171       52.538555    6.858525    6.310364   x
            x    C       172       57.922002    6.858566    6.308502   x
            x    C       173        1.422586    6.858483    6.308394   x
            x    C       174        9.493526    6.858466    6.307971   x
            x    C       175       60.609945    6.858567    6.310532   x
            x    C       176       17.564331    6.858514    6.306873   x
            x    C       177        0.075009    9.188499    6.310553   x
            x    C       178       21.599740    9.188474    6.307016   x
            x    C       179       29.671009    9.188512    6.307117   x
            x    C       180       37.742575    9.188457    6.306315   x
            x    C       181       45.814420    9.188465    6.307109   x
            x    C       182        8.145912    9.188471    6.310160   x
            x    C       183       16.216730    9.188466    6.308269   x
            x    C       184       24.287636    9.188477    6.309435   x
            x    C       185       32.359070    9.188473    6.308646   x
            x    C       186       40.430775    9.188472    6.308449   x
            x    C       187       48.502644    9.188474    6.309567   x
            x    C       188       53.886278    9.188470    6.308207   x
            x    C       189       56.574336    9.188536    6.310425   x
            x    C       190       61.957594    9.188489    6.308417   x
            x    C       191        5.458086    9.188446    6.308452   x
            x    C       192       13.528962    9.188464    6.306592   x
            x    C       193       17.564291   11.518426    6.305916   x
            x    C       194       25.635294   11.518469    6.307388   x
            x    C       195       33.706768   11.518439    6.306483   x
            x    C       196       41.778478   11.518440    6.306479   x
            x    C       197       60.609980   11.518462    6.310392   x
            x    C       198        4.110481   11.518440    6.310510   x
            x    C       199       12.181369   11.518436    6.308788   x
            x    C       200       20.252130   11.518463    6.308516   x
            x    C       201       28.323336   11.518512    6.309406   x
            x    C       202       36.394922   11.518455    6.308386   x
            x    C       203       44.466687   11.518441    6.308940   x
            x    C       204       49.850343   11.518429    6.307643   x
            x    C       205       52.538529   11.518410    6.310024   x
            x    C       206       57.921992   11.518479    6.308179   x
            x    C       207        1.422619   11.518466    6.308406   x
            x    C       208        9.493520   11.518446    6.307492   x
            x    C       209       13.528916   13.848431    6.306479   x
            x    C       210       21.599739   13.848451    6.306881   x
            x    C       211       29.671027   13.848474    6.307275   x
            x    C       212       37.742586   13.848393    6.306505   x
            x    C       213       56.574302   13.848413    6.310069   x
            x    C       214        0.075051   13.848470    6.310211   x
            x    C       215        8.145939   13.848460    6.309774   x
            x    C       216       16.216739   13.848411    6.308171   x
            x    C       217       24.287667   13.848470    6.309486   x
            x    C       218       32.359126   13.848443    6.308915   x
            x    C       219       40.430768   13.848372    6.308650   x
            x    C       220       48.502625   13.848383    6.309753   x
            x    C       221       45.814412   13.848357    6.307329   x
            x    C       222       53.886203   13.848372    6.307988   x
            x    C       223       61.957597   13.848418    6.308160   x
            x    C       224        5.458091   13.848413    6.308128   x
            x    C       225        9.493529   16.178448    6.307481   x
            x    C       226       17.564302   16.178444    6.306694   x
            x    C       227       25.635311   16.178470    6.307833   x
            x    C       228       33.706765   16.178446    6.306927   x
            x    C       229       52.538502   16.178384    6.310261   x
            x    C       230       60.610012   16.178410    6.309994   x
            x    C       231        4.110510   16.178454    6.309986   x
            x    C       232       12.181316   16.178433    6.309141   x
            x    C       233       20.252135   16.178463    6.309220   x
            x    C       234       44.466698   16.178390    6.309600   x
            x    C       235       28.323302   16.178475    6.309683   x
            x    C       236       36.394889   16.178405    6.308951   x
            x    C       237       41.778466   16.178378    6.307190   x
            x    C       238       49.850340   16.178380    6.308105   x
            x    C       239       57.922032   16.178367    6.307932   x
            x    C       240        1.422682   16.178439    6.307798   x
            x    C       241       13.528877   18.508437    6.307269   x
            x    C       242       21.599781   18.508453    6.307988   x
            x    C       243       29.670965   18.508451    6.307731   x
            x    C       244       48.502610   18.508404    6.310266   x
            x    C       245       56.574347   18.508353    6.310117   x
            x    C       246        0.075092   18.508422    6.309453   x
            x    C       247        8.145948   18.508462    6.309558   x
            x    C       248       40.430777   18.508428    6.309687   x
            x    C       249       16.216723   18.508487    6.309291   x
            x    C       250       24.287710   18.508497    6.310311   x
            x    C       251       32.359050   18.508444    6.309455   x
            x    C       252       37.742574   18.508404    6.307407   x
            x    C       253       45.814397   18.508428    6.308114   x
            x    C       254       53.886221   18.508386    6.308282   x
            x    C       255       61.957632   18.508392    6.307601   x
            x    C       256        5.458107   18.508482    6.307480   x
            x    C       257        9.493479   20.838497    6.307301   x
            x    C       258       17.564308   20.838480    6.307875   x
            x    C       259       25.635300   20.838488    6.308409   x
            x    C       260       44.466705   20.838422    6.310232   x
            x    C       261       52.538530   20.838418    6.310254   x
            x    C       262       36.394850   20.838382    6.309910   x
            x    C       263       60.610038   20.838394    6.309640   x
            x    C       264        4.110548   20.838489    6.309028   x
            x    C       265       12.181330   20.838488    6.309544   x
            x    C       266       20.252186   20.838480    6.310312   x
            x    C       267       28.323298   20.838431    6.310276   x
            x    C       268       33.706670   20.838428    6.307749   x
            x    C       269       41.778474   20.838399    6.308057   x
            x    C       270       49.850328   20.838391    6.308199   x
            x    C       271       57.922016   20.838338    6.307852   x
            x    C       272        1.422703   20.838412    6.306995   x
            x    C       273       61.957682   23.168371    6.307261   x
            x    C       274        5.458131   23.168459    6.306646   x
            x    C       275       13.528916   23.168474    6.307563   x
            x    C       276       40.430761   23.168422    6.310336   x
            x    C       277       21.599803   23.168442    6.308570   x
            x    C       278       32.358952   23.168419    6.310230   x
            x    C       279       48.502668   23.168440    6.309857   x
            x    C       280       56.574319   23.168348    6.309801   x
            x    C       281        0.075133   23.168395    6.308979   x
            x    C       282        8.145915   23.168496    6.308883   x
            x    C       283       16.216728   23.168477    6.309956   x
            x    C       284       24.287676   23.168471    6.310593   x
            x    C       285       29.670923   23.168400    6.308277   x
            x    C       286       37.742519   23.168391    6.308351   x
            x    C       287       45.814439   23.168427    6.307987   x
            x    C       288       53.886239   23.168409    6.307778   x
            x    C       289       57.922000   25.498351    6.307580   x
            x    C       290        1.422704   25.498397    6.306542   x
            x    C       291       36.394791   25.498416    6.310726   x
            x    C       292        9.493509   25.498478    6.306711   x
            x    C       293       17.564354   25.498416    6.307939   x
            x    C       294       44.466732   25.498461    6.309740   x
            x    C       295       52.538488   25.498420    6.309195   x
            x    C       296       60.610014   25.498350    6.309448   x
            x    C       297        4.110542   25.498410    6.308421   x
            x    C       298       12.181326   25.498480    6.309161   x
            x    C       299       20.252219   25.498435    6.310451   x
            x    C       300       25.635319   25.498397    6.308606   x
            x    C       301       33.706639   25.498413    6.308432   x
            x    C       302       41.778485   25.498446    6.308152   x
            x    C       303       28.323273   25.498397    6.310620   x
            x    C       304       49.850347   25.498453    6.306935   x
            x    C       305       32.358948   27.828370    6.310612   x
            x    C       306       53.886192   27.828363    6.306909   x
            x    C       307       61.957646   27.828332    6.307165   x
            x    C       308        5.458104   27.828380    6.306199   x
            x    C       309       13.528922   27.828406    6.307097   x
            x    C       310       40.430737   27.828394    6.310322   x
            x    C       311       48.502659   27.828435    6.308370   x
            x    C       312       56.574322   27.828368    6.309427   x
            x    C       313        0.075123   27.828385    6.308684   x
            x    C       314        8.145931   27.828423    6.308414   x
            x    C       315       16.216772   27.828388    6.309514   x
            x    C       316       21.599828   27.828375    6.308353   x
            x    C       317       24.287728   27.828351    6.310624   x
            x    C       318       29.670874   27.828359    6.308574   x
            x    C       319       37.742489   27.828412    6.308695   x
            x    C       320       45.814462   27.828382    6.306731   x
            x    C       321       49.850344   30.158385    6.305981   x
            x    C       322       57.921999   30.158364    6.307438   x
            x    C       323        1.422707   30.158370    6.306479   x
            x    C       324        9.493523   30.158343    6.306424   x
            x    C       325       28.323264   30.158336    6.310564   x
            x    C       326       36.394784   30.158407    6.310705   x
            x    C       327       44.466726   30.158352    6.308914   x
            x    C       328       52.538497   30.158368    6.308522   x
            x    C       329       60.610009   30.158332    6.309517   x
            x    C       330        4.110505   30.158325    6.308277   x
            x    C       331       12.181308   30.158342    6.308907   x
            x    C       332       17.564396   30.158296    6.307631   x
            x    C       333       20.252217   30.158340    6.310100   x
            x    C       334       25.635329   30.158284    6.308445   x
            x    C       335       33.706620   30.158349    6.308565   x
            x    C       336       41.778485   30.158365    6.307606   x
            x    C       337       45.814437   32.488352    6.306488   x
            x    C       338       53.886225   32.488345    6.306889   x
            x    C       339       61.957635   32.488346    6.307413   x
            x    C       340        5.458106   32.488285    6.306337   x
            x    C       341       24.287743   32.488271    6.310316   x
            x    C       342       32.358964   32.488340    6.310386   x
            x    C       343       40.430751   32.488384    6.309859   x
            x    C       344       48.502652   32.488390    6.308280   x
            x    C       345       56.574322   32.488369    6.309446   x
            x    C       346        0.075106   32.488352    6.308920   x
            x    C       347        8.145909   32.488290    6.308470   x
            x    C       348       16.216764   32.488272    6.309652   x
            x    C       349       13.528933   32.488277    6.307214   x
            x    C       350       21.599841   32.488275    6.308141   x
            x    C       351       29.670919   32.488289    6.308270   x
            x    C       352       37.742514   32.488402    6.308296   x
            x    C       353       41.778482   34.818342    6.307488   x
            x    C       354       49.850391   34.818325    6.306753   x
            x    C       355       57.921984   34.818356    6.307868   x
            x    C       356        1.422670   34.818323    6.306863   x
            x    C       357       20.252236   34.818256    6.310321   x
            x    C       358       28.323334   34.818268    6.310140   x
            x    C       359       36.394767   34.818343    6.310127   x
            x    C       360       44.466702   34.818334    6.309121   x
            x    C       361       52.538589   34.818352    6.309292   x
            x    C       362       12.181342   34.818257    6.309456   x
            x    C       363       60.610015   34.818355    6.309880   x
            x    C       364        4.110520   34.818280    6.308800   x
            x    C       365        9.493489   34.818239    6.307030   x
            x    C       366       17.564352   34.818259    6.308061   x
            x    C       367       25.635336   34.818243    6.308218   x
            x    C       368       33.706595   34.818328    6.307982   x
            x    C       369       45.814437   37.148293    6.307351   x
            x    C       370       53.886252   37.148356    6.308027   x
            x    C       371       61.957595   37.148337    6.307920   x
            x    C       372       16.216762   37.148285    6.310207   x
            x    C       373       24.287756   37.148236    6.310438   x
            x    C       374       32.359006   37.148323    6.309567   x
            x    C       375       40.430736   37.148325    6.309650   x
            x    C       376        8.145894   37.148237    6.309495   x
            x    C       377       48.502672   37.148295    6.309412   x
            x    C       378       56.574353   37.148369    6.310262   x
            x    C       379        0.075039   37.148288    6.309478   x
            x    C       380        5.458076   37.148273    6.307272   x
            x    C       381       13.528938   37.148245    6.307976   x
            x    C       382       21.599849   37.148223    6.308458   x
            x    C       383       29.670955   37.148246    6.307683   x
            x    C       384       37.742509   37.148280    6.307633   x
            x    C       385       18.913215    9.193512   12.701313   x
            x    C       386       13.529285    9.193352   12.710818   x
            x    C       387       14.876794   11.523617   12.701644   x
            x    C       388       17.565646   11.523828   12.707479   x
            x    C       389       51.197386   27.833448   12.700590   x
            x    C       390       45.815293   27.833302   12.710749   x
            x    C       391       47.161628   30.163557   12.701817   x
            x    C       392       49.850815   30.163710   12.708222   x
            x    C       393       14.876763    6.863024   12.708383   x
            x    C       394       17.565608    6.863025   12.711449   x
            x    C       395       21.600574   13.853091   12.716160   x
            x    C       396       18.912434   13.852704   12.702322   x
            x    C       397       13.530157   13.852734   12.709579   x
            x    C       398       14.876580   16.182215   12.710248   x
            x    C       399       17.565926   16.182246   12.714992   x
            x    C       400       47.161560   25.502961   12.708621   x
            x    C       401       49.850744   25.503008   12.711235   x
            x    C       402       53.884926   32.493009   12.716689   x
            x    C       403       51.196637   32.492552   12.701894   x
            x    C       404       45.816134   32.492658   12.709612   x
            x    C       405       47.161513   34.821980   12.710078   x
            x    C       406       49.851130   34.821946   12.714768   x
            x    C       407       14.876681    2.204135   12.721715   x
            x    C       408       17.566015    2.204001   12.727468   x
            x    C       409       22.949125    2.202010   12.722365   x
            x    C       410        9.493629    2.202274   12.729458   x
            x    C       411       63.303212    2.204227   12.721471   x
            x    C       412        6.803747    2.201970   12.722988   x
            x    C       413       31.020845    2.203450   12.722410   x
            x    C       414        1.421648    2.203503   12.728117   x
            x    C       415       25.639130    2.201979   12.727832   x
            x    C       416       33.709913    2.204234   12.728028   x
            x    C       417       39.090083    2.203343   12.723348   x
            x    C       418       55.232788    2.203579   12.721473   x
            x    C       419       57.922489    2.203388   12.726983   x
            x    C       420       47.161451    2.204831   12.720549   x
            x    C       421       41.780084    2.203642   12.729441   x
            x    C       422       49.851259    2.204874   12.726029   x
            x    C       423       18.912622    4.533625   12.710513   x
            x    C       424       13.530073    4.533820   12.719693   x
            x    C       425       10.842037    4.533410   12.719317   x
            x    C       426       26.986736    4.532724   12.721959   x
            x    C       427        5.455910    4.532785   12.728408   x
            x    C       428       21.600903    4.533239   12.720946   x
            x    C       429       59.269211    4.533959   12.719977   x
            x    C       430        2.767792    4.532825   12.717686   x
            x    C       431       35.055907    4.533293   12.718154   x
            x    C       432       61.956872    4.533393   12.722881   x
            x    C       433       29.675098    4.532950   12.724000   x
            x    C       434       43.127157    4.534339   12.722473   x
            x    C       435       51.197365    4.534316   12.717668   x
            x    C       436       37.743764    4.533929   12.728629   x
            x    C       437       53.885525    4.534334   12.726841   x
            x    C       438       45.815510    4.534398   12.725212   x
            x    C       439       22.948613    6.864066   12.714626   x
            x    C       440       63.302617    6.862505   12.720107   x
            x    C       441        6.804205    6.863780   12.721211   x
            x    C       442       31.021426    6.862188   12.722410   x
            x    C       443       39.090738    6.864276   12.723125   x
            x    C       444       57.921913    6.864459   12.726073   x
            x    C       445        1.421126    6.862150   12.726981   x
            x    C       446        9.494259    6.864077   12.724582   x
            x    C       447       25.638820    6.863853   12.726670   x
            x    C       448       33.710564    6.862461   12.728008   x
            x    C       449       55.232548    6.864607   12.720762   x
            x    C       450       47.161704    6.863210   12.722104   x
            x    C       451       41.780357    6.864624   12.728570   x
            x    C       452       49.851124    6.863208   12.727700   x
            x    C       453       51.198266    9.193133   12.719727   x
            x    C       454       59.268001    9.193296   12.715081   x
            x    C       455        2.768599    9.193145   12.720928   x
            x    C       456       26.985673    9.193192   12.716729   x
            x    C       457       35.057275    9.193152   12.721514   x
            x    C       458       43.126434    9.193226   12.717129   x
            x    C       459       53.886318    9.193317   12.721866   x
            x    C       460       61.955559    9.193244   12.725205   x
            x    C       461        5.457061    9.193199   12.722626   x
            x    C       462       21.601307    9.193539   12.710339   x
            x    C       463       29.674304    9.193224   12.728052   x
            x    C       464       37.745110    9.193273   12.723153   x
            x    C       465       45.814651    9.193182   12.727290   x
            x    C       466       10.841463    9.193321   12.708609   x
            x    C       467       47.161538   11.523105   12.721237   x
            x    C       468       55.232611   11.521899   12.718504   x
            x    C       469       63.302585   11.523993   12.719817   x
            x    C       470       31.021264   11.524228   12.722219   x
            x    C       471       39.090755   11.522083   12.720830   x
            x    C       472       49.851135   11.523119   12.726242   x
            x    C       473       57.921955   11.522196   12.724629   x
            x    C       474        1.421212   11.524248   12.726669   x
            x    C       475       33.710551   11.524028   12.727239   x
            x    C       476       41.780353   11.521863   12.726809   x
            x    C       477        6.804283   11.522648   12.718792   x
            x    C       478       22.948410   11.522561   12.713324   x
            x    C       479       25.638642   11.522689   12.724051   x
            x    C       480        9.494381   11.522443   12.720254   x
            x    C       481       45.815470   13.851984   12.723843   x
            x    C       482       43.127065   13.851886   12.721192   x
            x    C       483       51.197362   13.852006   12.716332   x
            x    C       484       59.269226   13.852589   12.718590   x
            x    C       485       35.055966   13.853128   12.716357   x
            x    C       486       53.885620   13.852043   12.725835   x
            x    C       487       61.956866   13.853226   12.721545   x
            x    C       488       29.674923   13.853703   12.723889   x
            x    C       489       37.743826   13.852552   12.726201   x
            x    C       490        2.767895   13.853630   12.717457   x
            x    C       491       26.986441   13.853676   12.720164   x
            x    C       492        5.456158   13.853690   12.726550   x
            x    C       493       10.842133   13.853054   12.712606   x
            x    C       494       47.161420   16.181424   12.723118   x
            x    C       495       55.232879   16.182783   12.721697   x
            x    C       496       41.780066   16.182749   12.729008   x
            x    C       497       49.851336   16.181420   12.728822   x
            x    C       498       39.090080   16.183046   12.722490   x
            x    C       499       63.303296   16.182302   12.720198   x
            x    C       500       31.020781   16.183034   12.721700   x
            x    C       501       57.922572   16.183141   12.726416   x
            x    C       502       33.709876   16.182341   12.726695   x
            x    C       503        6.803855   16.184477   12.721625   x
            x    C       504        1.421693   16.183074   12.727181   x
            x    C       505       25.638858   16.184517   12.726215   x
            x    C       506       22.948737   16.184205   12.716597   x
            x    C       507        9.493877   16.184276   12.724707   x
            x    C       508       51.198125   18.512685   12.722165   x
            x    C       509       45.814703   18.512803   12.729070   x
            x    C       510       43.126072   18.512399   12.719092   x
            x    C       511       53.886574   18.512334   12.724432   x
            x    C       512       35.056057   18.512898   12.720925   x
            x    C       513       59.268990   18.512454   12.717111   x
            x    C       514       37.744145   18.512556   12.724285   x
            x    C       515       61.956837   18.512910   12.726769   x
            x    C       516       29.673638   18.513636   12.726919   x
            x    C       517        2.769118   18.513614   12.722021   x
            x    C       518       26.985525   18.513939   12.717929   x
            x    C       519        5.457011   18.514077   12.725439   x
            x    C       520       10.840455   18.513923   12.716021   x
            x    C       521       18.913914   18.513531   12.715281   x
            x    C       522       21.602232   18.513953   12.719568   x
            x    C       523       13.528654   18.513713   12.722567   x
            x    C       524       47.161488   20.844110   12.721368   x
            x    C       525       49.851046   20.844026   12.727164   x
            x    C       526       55.232707   20.841895   12.721747   x
            x    C       527       41.780284   20.842108   12.728603   x
            x    C       528       31.019954   20.844141   12.721490   x
            x    C       529       39.090128   20.841901   12.723185   x
            x    C       530       63.304135   20.843386   12.721967   x
            x    C       531       33.709058   20.843471   12.727377   x
            x    C       532       57.922673   20.841849   12.727727   x
            x    C       533        1.422486   20.844207   12.728868   x
            x    C       534        6.803805   20.843303   12.723140   x
            x    C       535       22.949198   20.843507   12.721897   x
            x    C       536       25.638881   20.843191   12.726479   x
            x    C       537       14.876680   20.844790   12.720792   x
            x    C       538        9.493355   20.843637   12.729925   x
            x    C       539       17.566111   20.844810   12.726054   x
            x    C       540       51.196758   23.173560   12.709812   x
            x    C       541       45.815952   23.173717   12.719927   x
            x    C       542       43.127581   23.173281   12.719081   x
            x    C       543       59.270010   23.172552   12.721564   x
            x    C       544       37.743229   23.172713   12.728174   x
            x    C       545       53.885215   23.173124   12.721610   x
            x    C       546       26.985930   23.173694   12.720868   x
            x    C       547       35.054711   23.172717   12.718192   x
            x    C       548        2.769033   23.173263   12.718675   x
            x    C       549       29.673687   23.173283   12.722552   x
            x    C       550       61.958263   23.172767   12.725210   x
            x    C       551       10.841575   23.174237   12.723414   x
            x    C       552       18.913130   23.174183   12.718939   x
            x    C       553        5.456531   23.173808   12.729462   x
            x    C       554       21.601163   23.174250   12.726646   x
            x    C       555       13.529646   23.174340   12.725887   x
            x    C       556       55.232246   25.504049   12.714485   x
            x    C       557       31.019292   25.502406   12.720746   x
            x    C       558       39.090590   25.503826   12.721554   x
            x    C       559       63.304708   25.502150   12.722672   x
            x    C       560        6.804378   25.504306   12.723275   x
            x    C       561       25.638335   25.504346   12.726441   x
            x    C       562       33.708518   25.502101   12.726534   x
            x    C       563       41.780976   25.504131   12.724280   x
            x    C       564       57.922449   25.503700   12.727260   x
            x    C       565        1.423199   25.502473   12.728831   x
            x    C       566       22.948914   25.504494   12.721426   x
            x    C       567       14.876865   25.503271   12.722825   x
            x    C       568        9.493689   25.504585   12.729819   x
            x    C       569       17.566041   25.503304   12.728029   x
            x    C       570       18.914248   27.833145   12.720940   x
            x    C       571       26.984659   27.833112   12.715935   x
            x    C       572       35.055509   27.833093   12.721243   x
            x    C       573       59.269010   27.833061   12.716605   x
            x    C       574        2.770405   27.833140   12.721613   x
            x    C       575       10.840779   27.833145   12.718149   x
            x    C       576       21.602086   27.833289   12.722022   x
            x    C       577       29.672368   27.833142   12.724836   x
            x    C       578       37.744245   27.833155   12.722458   x
            x    C       579       53.885637   27.833503   12.711295   x
            x    C       580       61.957484   27.833154   12.728788   x
            x    C       581        5.457879   27.833228   12.724398   x
            x    C       582       13.528587   27.833134   12.727530   x
            x    C       583       43.127177   27.833237   12.708312   x
            x    C       584       14.876770   30.162903   12.721899   x
            x    C       585       22.949041   30.161740   12.719700   x
            x    C       586       31.019342   30.163808   12.720567   x
            x    C       587       63.304604   30.164142   12.722351   x
            x    C       588        6.804410   30.162026   12.721549   x
            x    C       589       17.566094   30.163009   12.727304   x
            x    C       590       25.638363   30.162024   12.724782   x
            x    C       591       33.708621   30.164169   12.726749   x
            x    C       592        1.423156   30.163828   12.728700   x
            x    C       593        9.493655   30.161707   12.727751   x
            x    C       594       39.090616   30.162476   12.719663   x
            x    C       595       55.232000   30.162469   12.713476   x
            x    C       596       57.922175   30.162480   12.724471   x
            x    C       597       41.781077   30.162280   12.719697   x
            x    C       598       13.529620   32.491875   12.724434   x
            x    C       599       10.841460   32.491789   12.721781   x
            x    C       600       18.913193   32.491832   12.718129   x
            x    C       601       26.985984   32.492421   12.719019   x
            x    C       602        2.769006   32.493011   12.717414   x
            x    C       603       21.601340   32.491896   12.725954   x
            x    C       604       29.673711   32.493084   12.721311   x
            x    C       605       61.958087   32.493535   12.724759   x
            x    C       606        5.456546   32.492472   12.727080   x
            x    C       607       35.054755   32.493449   12.718093   x
            x    C       608       59.269694   32.493510   12.719457   x
            x    C       609       37.743345   32.493520   12.726194   x
            x    C       610       43.127724   32.492941   12.711688   x
            x    C       611       14.876673   34.821202   12.723520   x
            x    C       612       22.949341   34.822498   12.722040   x
            x    C       613        9.493312   34.822530   12.729479   x
            x    C       614       17.566187   34.821168   12.729177   x
            x    C       615        6.803756   34.822823   12.722012   x
            x    C       616       31.019947   34.822047   12.720764   x
            x    C       617       63.304021   34.822861   12.721572   x
            x    C       618       25.639053   34.822991   12.725957   x
            x    C       619        1.422381   34.822108   12.727561   x
            x    C       620       39.090119   34.824243   12.721386   x
            x    C       621       33.708987   34.822753   12.726790   x
            x    C       622       57.922510   34.824337   12.726337   x
            x    C       623       55.232421   34.824069   12.715763   x
            x    C       624       41.780483   34.824105   12.723543   x
            x    C       625       18.914056   37.152312   12.723298   x
            x    C       626       13.528686   37.152472   12.729444   x
            x    C       627       10.840369   37.152118   12.719789   x
            x    C       628       21.602358   37.152052   12.724489   x
            x    C       629        2.769079   37.152593   12.721102   x
            x    C       630       26.985722   37.152237   12.717622   x
            x    C       631        5.456913   37.152214   12.724946   x
            x    C       632       29.673682   37.152673   12.726299   x
            x    C       633       61.956765   37.153376   12.727541   x
            x    C       634       35.055954   37.153183   12.722060   x
            x    C       635       59.268835   37.153822   12.717662   x
            x    C       636       37.744122   37.153810   12.724674   x
            x    C       637       43.126138   37.153630   12.715494   x
            x    C       638       51.198075   37.153207   12.714240   x
            x    C       639       53.886543   37.153661   12.719868   x
            x    C       640       45.814727   37.153351   12.722398   x
            xxxxxxxxxxxxxxxxxxxxxxxxxxxxxxxxxxxxxxxxxxxxxxxxxxxxxxxxxxxx
 

LBFGS: continuation file name is "graphite.continuation"
 LBFGS: Restarting previous  geometry optimization.
 avg_mass=  20045.867176308609
 Enthalpy contributions:
                  total energy=  -3.56820865E+003 Eh
        diagonal pressure term=   0.00000000E+000 Eh
    off-diagonal pressure term=   0.00000000E+000 Eh
 LBFGS: finished iteration   0  with enthalpy= -3.568208654635E+003 Eh
  
 +-----------+-----------------+-----------------+------------+-----+ <-- LBFGS
 | Parameter |      value      |    tolerance    |    units   | OK? | <-- LBFGS
 +-----------+-----------------+-----------------+------------+-----+ <-- LBFGS
 |  dE/ion   |   0.000000E+000 |   1.000000E-006 |         Eh | No  | <-- LBFGS
 |  |F|max   |   9.866690E-004 |   2.000000E-003 |    Eh/Bohr | Yes | <-- LBFGS
 |  |dR|max  |   0.000000E+000 |   5.000000E-003 |       Bohr | No  | <-- LBFGS
 +-----------+-----------------+-----------------+------------+-----+ <-- LBFGS
  

================================================================================
 Starting LBFGS iteration    1 ...
================================================================================
 Writing xyz coordinates to file "graphite.xyz" ... done

 Writing continuation file "graphite.continuation" ...done
 Backing up NGWFs to file "graphite.tightbox_ngwfs.bfgs_back" ... done
 Backing up Hamiltonian to file "graphite.ham.bfgs_back" ... done
  
 +------------+-------------+-------------+-----------------+ <-- min LBFGS
 |    Step    |   lambda    |   F.delta   |    enthalpy     | <-- min LBFGS
 +------------+-------------+-------------+-----------------+ <-- min LBFGS
 |  previous  |    0.000000 |    0.000125 |    -3568.208655 | <-- min LBFGS
 +------------+-------------+-------------+-----------------+ <-- min LBFGS
  

--------------------------------------------------------------------------------
 LBFGS: starting iteration   1 with trial guess (lambda=    1.000000)
--------------------------------------------------------------------------------
 
                           -------------------------------
                                     Cell Contents
                           -------------------------------
 
            xxxxxxxxxxxxxxxxxxxxxxxxxxxxxxxxxxxxxxxxxxxxxxxxxxxxxxxxxxxx
            x  Element    Atom      Absolute co-ordinates of atoms     x
            x            Number        x           y           z       x
            x----------------------------------------------------------x
            x    Li        1        0.060591   37.177103   16.276663   x
            x    Li        2        0.059854   27.855840   16.278837   x
            x    Li        3        0.060401   18.534654   16.276920   x
            x    Li        4        0.060466    9.216134   16.276027   x
            x    Li        5        0.059296   32.515305   16.279617   x
            x    Li        6        0.059787   23.197647   16.280513   x
            x    Li        7        0.059957   13.876436   16.275743   x
            x    Li        8        0.059797    4.555755   16.279361   x
            x    Li        9        8.143400   37.178114   16.279678   x
            x    Li       10        8.143176   27.856171   16.280076   x
            x    Li       11        8.143102   18.534881   16.279254   x
            x    Li       12        8.143292    9.216866   16.276991   x
            x    Li       13        8.143948   32.515005   16.278067   x
            x    Li       14        8.143772   23.196695   16.279718   x
            x    Li       15        8.144114   13.875931   16.273895   x
            x    Li       16        8.143475    4.555180   16.278974   x
            x    Li       17       16.233124    9.217743   16.249158   x
            x    Li       18       16.233266   18.533399   16.270284   x
            x    Li       19       16.233086   27.855776   16.277507   x
            x    Li       20       16.232748   37.176401   16.279896   x
            x    Li       21       16.232387   32.515291   16.280001   x
            x    Li       22       16.232699   23.197074   16.281607   x
            x    Li       23       16.233058   13.877137   16.270642   x
            x    Li       24       16.234003    4.557998   16.280638   x
            x    Li       25       24.319709   32.515081   16.275008   x
            x    Li       26       24.319483   23.197209   16.276038   x
            x    Li       27       24.318762   13.876559   16.272386   x
            x    Li       28       24.318287    4.555991   16.279083   x
            x    Li       29       24.319060   37.177292   16.278660   x
            x    Li       30       24.319501   27.855911   16.279373   x
            x    Li       31       24.318945   18.534848   16.279226   x
            x    Li       32       24.319028    9.216060   16.277848   x
            x    Li       33       32.395033   37.177125   16.276898   x
            x    Li       34       32.395060   27.855878   16.275846   x
            x    Li       35       32.395309   18.535164   16.276991   x
            x    Li       36       32.394804    9.216463   16.279235   x
            x    Li       37       32.395461   32.515142   16.278924   x
            x    Li       38       32.395512   23.197519   16.280164   x
            x    Li       39       32.394917   13.876349   16.276731   x
            x    Li       40       32.395438    4.555387   16.280015   x
            x    Li       41       40.455977   32.515180   16.272527   x
            x    Li       42       40.454166   23.197516   16.277572   x
            x    Li       43       40.454463   13.876840   16.277360   x
            x    Li       44       40.454428    4.555778   16.279308   x
            x    Li       45       40.455452   37.176850   16.278216   x
            x    Li       46       40.455435   27.855727   16.277510   x
            x    Li       47       40.455854   18.534992   16.278962   x
            x    Li       48       40.455983    9.216065   16.277311   x
            x    Li       49       48.504896   37.176224   16.268412   x
            x    Li       50       48.505027   27.857377   16.247345   x
            x    Li       51       48.504321   18.534378   16.278582   x
            x    Li       52       48.504312    9.216623   16.276389   x
            x    Li       53       48.504398   32.515369   16.272355   x
            x    Li       54       48.505735   23.200083   16.280103   x
            x    Li       55       48.504467   13.876237   16.275535   x
            x    Li       56       48.504545    4.554718   16.279528   x
            x    Li       57       56.558929   32.515632   16.270901   x
            x    Li       58       56.558592   23.197419   16.277470   x
            x    Li       59       56.560029   13.876275   16.274216   x
            x    Li       60       56.559977    4.555673   16.275715   x
            x    Li       61       56.559577   37.177080   16.278309   x
            x    Li       62       56.559684   27.855460   16.278763   x
            x    Li       63       56.559804   18.535039   16.277894   x
            x    Li       64       56.560021    9.216382   16.276565   x
            x    Li       65        4.100031   34.845398   16.279275   x
            x    Li       66        4.100636   25.524407   16.279799   x
            x    Li       67        4.100668   16.205176   16.280198   x
            x    Li       68        4.100075    6.886426   16.278905   x
            x    Li       69        4.100205   30.186594   16.279220   x
            x    Li       70        4.099792   20.866270   16.281596   x
            x    Li       71        4.100402   11.544709   16.277501   x
            x    Li       72        4.100283    2.225800   16.280329   x
            x    Li       73       12.188274   34.845614   16.280499   x
            x    Li       74       12.188378   25.524832   16.280155   x
            x    Li       75       12.188094   16.206096   16.275942   x
            x    Li       76       12.189091    6.887342   16.275863   x
            x    Li       77       12.188451   30.186139   16.279665   x
            x    Li       78       12.188636   20.865976   16.281965   x
[...]
 C   273 -- C   280       -0.08     -0.00      5.38348
 C   325 -- C   335       -0.08     -0.00      5.38348
 C   301 -- C   303       -0.08      0.00      5.38349
 C   267 -- C   268       -0.08     -0.00      5.38349
 C   135 -- C   144       -0.08     -0.00      5.38350
 C   355 -- C   361       -0.08     -0.00      5.38351
 C   162 -- C   168       -0.08     -0.00      5.38353
 C   195 -- C   201       -0.08     -0.00      5.38355
 C   552 -- C   555       -0.05      0.00      5.38356
 C   171 -- C   172       -0.08     -0.00      5.38356
 C   131 -- C   138       -0.08     -0.00      5.38357
 C   205 -- C   206       -0.08     -0.00      5.38358
 C   228 -- C   235       -0.08     -0.00      5.38358
 C   212 -- C   218       -0.08     -0.00      5.38359
 C   261 -- C   271       -0.08     -0.00      5.38359
 C   542 -- C   544       -0.05     -0.00      5.38360
 C   146 -- C   153       -0.08     -0.00      5.38361
 C   322 -- C   328       -0.08     -0.00      5.38361
 C   598 -- C   600       -0.05     -0.00      5.38361
 C   289 -- C   295       -0.08     -0.00      5.38362
 C   609 -- C   610       -0.05     -0.00      5.38363
 C   374 -- C   384       -0.08     -0.00      5.38363
 C   180 -- C   185       -0.08     -0.00      5.38363
 C   251 -- C   252       -0.08     -0.00      5.38364
 C   229 -- C   239       -0.08     -0.00      5.38365
 C   305 -- C   319       -0.08     -0.00      5.38365
 C   306 -- C   311       -0.08     -0.00      5.38365
 C   342 -- C   352       -0.08     -0.00      5.38367
 C   278 -- C   286       -0.08     -0.00      5.38368
 C   196 -- C   202       -0.08      0.00      5.38368
 C   279 -- C   288       -0.08     -0.00      5.38369
 C   338 -- C   344       -0.08     -0.00      5.38369
 C   220 -- C   222       -0.08     -0.00      5.38370
 C   236 -- C   237       -0.08     -0.00      5.38370
 C   370 -- C   377       -0.08     -0.00      5.38370
 C   149 -- C   155       -0.08     -0.00      5.38372
 C   129 -- C   136       -0.08     -0.00      5.38373
 C   244 -- C   254       -0.08     -0.00      5.38373
 C   164 -- C   169       -0.08     -0.00      5.38373
 C   187 -- C   188       -0.08     -0.00      5.38374
 C   262 -- C   269       -0.08     -0.00      5.38374
 C   321 -- C   327       -0.08     -0.00      5.38374
 C   294 -- C   304       -0.08     -0.00      5.38374
 C   248 -- C   253       -0.08     -0.00      5.38375
 C   260 -- C   270       -0.08     -0.00      5.38375
 C   234 -- C   238       -0.08     -0.00      5.38376
 C   181 -- C   186       -0.08     -0.00      5.38376
 C   219 -- C   221       -0.08     -0.00      5.38377
 C   203 -- C   204       -0.08     -0.00      5.38377
 C   130 -- C   137       -0.08     -0.00      5.38379
 C   276 -- C   287       -0.08     -0.00      5.38379
 C   291 -- C   302       -0.08     -0.00      5.38380
 C   337 -- C   343       -0.08     -0.00      5.38380
 C   326 -- C   336       -0.08      0.00      5.38381
 C   147 -- C   154       -0.08     -0.00      5.38381
 C   354 -- C   360       -0.08     -0.00      5.38381
 C   369 -- C   375       -0.08     -0.00      5.38382
 C   165 -- C   170       -0.08     -0.00      5.38382
 C   353 -- C   359       -0.08     -0.00      5.38382
 C   310 -- C   320       -0.08     -0.00      5.38384
 C   385 -- C   386       -0.05     -0.00      5.38388
 C   456 -- C   462       -0.05      0.00      5.38402
 C   402 -- C   608       -0.05      0.00      5.38403
 C   543 -- C   545       -0.05      0.00      5.38406
 C   461 -- C   466       -0.05     -0.00      5.38412
 C   601 -- C   603       -0.05      0.00      5.38416
 C   546 -- C   554       -0.05      0.00      5.38426
 C   599 -- C   606       -0.05     -0.00      5.38444
 C   551 -- C   553       -0.05     -0.00      5.38456
 C   521 -- C   523       -0.05      0.00      5.38491
 C   625 -- C   626       -0.05      0.00      5.38499
 C   426 -- C   428       -0.05      0.00      5.38514
 C   395 -- C   491       -0.05      0.00      5.38516
 C   570 -- C   582       -0.05      0.00      5.38520
 C   492 -- C   493       -0.05     -0.00      5.38531
 C   425 -- C   427       -0.05     -0.00      5.38547
=============================================================

(P)DSYGVX in subroutine dense_eigensolve returned info=    2
 ifail= 2*0
 iclustr= 42,  128
 gap= 1.13661902773291976E-6,  1.16966198247606981E-5
(P)DSYGVX in subroutine dense_eigensolve returned info=    2
 ifail= 2*0
 iclustr= 42,  128
 gap= 1.13659922760675289E-6,  1.16967547400937658E-5

============== Orbital energy and occupancy information for spin 1 =============

      Total number of orbitals:    2688
        Occupancy sum (kernel):    1214.250544448
   Occupancy sum (eigenvalues):    1214.250544448
                 HOMO-LUMO gap:       0.003594921 Eh
                 Mid-gap level:      -0.160085408 Eh

                        Orbital | Energy (Eh) | Occupancy
                            1    -1.908676214   1.0000000
                        .......   ...........   .........
                         1205    -0.171409508   0.9174486
                         1206    -0.171388108   0.9170344
                         1207    -0.170141076   0.8859959
                         1208    -0.170125518   0.8855613
                         1209    -0.169928311   0.8794071
                         1210    -0.169901061   0.8785830
                         1211    -0.161960286   0.4593248
                         1212    -0.161935103   0.4573277
                         1213    -0.161918299   0.4564373
                         1214    -0.161882869   0.4537561
                        ....... -- gap at 0K -- .........
                         1215    -0.158287948   0.2359311
                         1216    -0.158267211   0.2349265
                         1217    -0.158243318   0.2336863
                         1218    -0.158225678   0.2329009
                         1219    -0.158011287   0.2225035
                         1220    -0.157962903   0.2201410
                         1221    -0.157950277   0.2191425
                         1222    -0.157932481   0.2181753
                         1223    -0.157905749   0.2169505
                         1224    -0.157887353   0.2160883
                        .......   ...........   .........
                         2688     0.743258412   0.0000000

================================================================================

============== Orbital energy and occupancy information for spin 2 =============

      Total number of orbitals:    2688
        Occupancy sum (kernel):    1214.250544518
   Occupancy sum (eigenvalues):    1214.250544518
                 HOMO-LUMO gap:       0.000020737 Eh
                 Mid-gap level:      -0.158277580 Eh

                        Orbital | Energy (Eh) | Occupancy
                            1    -1.908676214   1.0000000
                        .......   ...........   .........
                         1206    -0.171388108   0.9170344
                         1207    -0.170141076   0.8859959
                         1208    -0.170125518   0.8855612
                         1209    -0.169928311   0.8794071
                         1210    -0.169901061   0.8785830
                         1211    -0.161960286   0.4593248
                         1212    -0.161935103   0.4573277
                         1213    -0.161918299   0.4564372
                         1214    -0.161882869   0.4537562
                         1215    -0.158287948   0.2359311
                        ....... -- gap at 0K -- .........
                         1216    -0.158267211   0.2349265
                         1217    -0.158243319   0.2336863
                         1218    -0.158225678   0.2329009
                         1219    -0.158011287   0.2225035
                         1220    -0.157962904   0.2201410
                         1221    -0.157950277   0.2191425
                         1222    -0.157932481   0.2181753
                         1223    -0.157905749   0.2169505
                         1224    -0.157887353   0.2160883
                         1225    -0.157787587   0.2113550
                        .......   ...........   .........
                         2688     0.743258412   0.0000000

================================================================================

===================== Writing canonical molecular orbitals =====================
    Spin 1
| Orbital  Energy (eV)  Norm     |
| HOMO-5   -4.62398463  1.000000 | 
| HOMO-4   -4.62324311  1.000000 | 
| HOMO-3   -4.40716362  1.000000 | 
| HOMO-2   -4.40647836  1.000000 | 
| HOMO-1   -4.40602111  1.000000 | 
| HOMO     -4.40505701  1.000000 | 
| LUMO     -4.30723423  1.000000 | 
| LUMO+1   -4.30666994  1.000000 | 
| LUMO+2   -4.30601980  1.000000 | 
| LUMO+3   -4.30553978  1.000000 | 
| LUMO+4   -4.29970591  1.000000 | 
| LUMO+5   -4.29838931  1.000000 | 
================================================================================

===================== Writing canonical molecular orbitals =====================
    Spin 2
| Orbital  Energy (eV)  Norm     |
| HOMO-5   -4.62324312  1.000000 | 
| HOMO-4   -4.40716363  1.000000 | 
| HOMO-3   -4.40647837  1.000000 | 
| HOMO-2   -4.40602111  1.000000 | 
| HOMO-1   -4.40505700  1.000000 | 
| HOMO     -4.30723423  1.000000 | 
| LUMO     -4.30666995  1.000000 | 
| LUMO+1   -4.30601981  1.000000 | 
| LUMO+2   -4.30553978  1.000000 | 
| LUMO+3   -4.29970591  1.000000 | 
| LUMO+4   -4.29838933  1.000000 | 
| LUMO+5   -4.29804573  1.000000 | 
================================================================================
 
=============== Density of States (DOS) calculation for UP spin ================
Writing "graphite_UP_DOS.txt" ... done
================================================================================
 
============== Density of States (DOS) calculation for DOWN spin ===============
Writing "graphite_DN_DOS.txt" ... done
================================================================================
 
Writing bands to file "graphite.val_bands" ... done

IS: Calculating electrolyte contribution to the atomic forces ...
================================================================================
 
***********************************************************
********** Summary of Forces (values in Eh/a) *************
*                                                         *
* ---------------------- Minimum ------------------------ *
* Atom:       435, |F|min =    0.00008759                 *
* Components:     Fx|min       Fy|min       Fz|min        *
*               0.00001038  -0.00003107  -0.00008124      *
*                                                         *
* ---------------------- Maximum ------------------------ *
* Atom:       497, |F|max =    0.00082939                 *
* Components:     Fx|max       Fy|max       Fz|max        *
*              -0.00019908   0.00054554  -0.00059215      *
*                                                         *
* ---------------- Root Mean Square Force --------------- *
*                  |F|rms =    0.00045671                 *
* Components:     Fx|rms       Fy|rms       Fz|rms        *
*               0.00018998   0.00020359   0.00036200      *
***********************************************************
 

                                                      hartree           kcal/mol
IS: NB: Energy of pure electrolyte:         -0.07739764608133         -48.567755

------------------------------ TIMING INFORMATION ------------------------------
AVERAGE TIME:    2578.732s on    128 proc(s)                                    
TOTAL TIME:      2578.741s on    128 proc(s)                                    
================= AVERAGE TIMINGS FROM ALL PROCS (CUMULATIVE) ==================
|| TAG                                    #calls    cpu time   %total  Gflops ||
|| linalg_invert_sym_matrix             :     2        0.00s   0.000%  ------ || (1 procs only)
|| onetep.F90 main loop imbalance       :     1        0.00s   0.000%  ------ ||
|| density_fftbox_interp_mult_imbal     :  3066        0.00s   0.000%  ------ ||
|| sparse_set_to_garbage                :    32        0.00s   0.000%  ------ ||
|| vdwcorrection_calculate_forces       :     2        0.01s   0.000%  ------ ||
|| ewald_calculate_forces_realspace     :     2        0.01s   0.000%  ------ ||
|| onetep.F90 final imbalance           :     1        0.01s   0.000%  ------ ||
|| vdwcorrection_calculate_energy       :     2        0.01s   0.000%  ------ ||
|| basis_extract_function_from_box      :   294        0.02s   0.001%  ------ ||
|| pseudopotentials_core_density        :     2        0.04s   0.001%  ------ ||
|| pseudopotentials_local_on_grid       :     2        0.04s   0.001%  ------ ||
|| sparse_spam3toblacs_real_fast_imbal  :   267        0.05s   0.002%  ------ ||
|| parallel_prepare_fd_halos_alloc      : 11739        0.06s   0.002%  ------ ||
|| pseudopotentials_nonlocal_mat        :     5        0.10s   0.004%  ------ ||
|| sparse_blacstospam3_real_fast_imbal  :   258        0.11s   0.004%  ------ ||
|| parallel_prepare_fd_halos_request    : 11739        0.11s   0.004%  ------ ||
|| restart_hamiltonian_read             :     2        0.11s   0.004%  ------ ||
|| restart_hamiltonian_write            :     3        0.20s   0.008%  ------ ||
|| sparse_spam3toblacs_real_fast_B2     : 34176        0.29s   0.011%  ------ ||
|| pseudo_make_structure_factor         :     2        0.34s   0.013%  ------ ||
|| parallel_prepare_fd_halos_satisfy    : 11739        0.54s   0.021%  ------ ||
|| ngwf_gradient_coeffs                 :     3        0.70s   0.027%  ------ ||
|| restart_kernel_write                 :     5        0.97s   0.038%  ------ ||
|| sparse_init                          :     2        1.03s   0.040%  ------ ||
|| pseudo_local_calculate_forces        :     2        1.16s   0.045%  ------ ||
|| smeared_ion_generate_potential_PBC   :     2        1.27s   0.049%  ------ ||
|| integrals_grad_spam3                 :     2        1.34s   0.052%  ------ ||
|| nonsc_forces_ngwfs_calc              :     2        1.35s   0.052%  ------ ||
|| projectors_func_ovlp_box_spam3       :     5        1.42s   0.055%  ------ ||
|| density_init_guess_real              :     2        1.44s   0.056%  ------ ||
|| pseudo_nlcc_calculate_forces         :     2        1.55s   0.060%  ------ ||
|| fourier_filter_cell                  :    64        1.69s   0.066% 210.704 ||
|| ewald_calculate_energy               :     2        1.72s   0.067%  ------ ||
|| projectors_func_grad_ovlp_box_spam3  :     6        1.81s   0.070%  ------ ||
|| sparse_embed_hotelling_invert_embed  :     5        1.88s   0.073%  ------ ||
|| pseudo_nl_calculate_forces           :     2        2.07s   0.080%  ------ ||
|| projectors_init_fftbox_recip         :    23        2.23s   0.087%  ------ ||
|| energy_and_force_init_cell           :     1        2.31s   0.090%  ------ ||
|| sparse_trace                         :  1012        2.35s   0.091%  ------ ||
|| restart_ngwfs_tightbox_input         :     2        2.62s   0.102%  ------ ||
|| fourier_apply_box_pair               :   329        2.89s   0.112%  1.837k ||
|| function_ops_brappd_ketppd_spam3     :     8        3.51s   0.136%  ------ ||
|| basis_copy_function_to_box           :  4977        4.03s   0.156%  ------ ||
|| boltzmann_init_steric_pot            :     2        4.22s   0.164%  ------ ||
|| parallel_prepare_fd_halos_clear      : 11739        4.71s   0.183%  ------ ||
|| parallel_prepare_fd_halos_comms_imbal: 11739        4.77s   0.185%  ------ ||
|| ewald_calculate_forces_recipspace    :     2        4.80s   0.186%  ------ ||
|| ewald_calculate_forces               :     2        4.82s   0.187%  ------ ||
|| eigenstates_calculate                :     1        5.20s   0.202%  ------ ||
|| integrals_kinetic_spam3              :     5        5.67s   0.220%  ------ ||
|| fourier_interpolate_cell             :   146        7.75s   0.301% 104.914 ||
|| parallel_prepare_fd_halos_comms_wait : 11739        7.94s   0.308%  ------ ||
|| projectors_gradient_batch            :    12        8.84s   0.343%  ------ ||
|| fourier_apply_cell_backward          :   618        9.85s   0.382% 176.444 ||
|| sparse_product                       :   639       10.01s   0.388%  ------ ||
|| sparse_spam3toblacs_real_fast_B1     : 34176       12.06s   0.468%  ------ ||
|| sparse_spam3toblacs_real_fast        :   267       13.03s   0.505%  ------ ||
|| restart_ngwfs_tightbox_output        :     2       15.37s   0.596%  ------ ||
|| parallel_prepare_fd_halos            : 11739       18.20s   0.706%  ------ ||
|| basis_dot_function_with_box          : 998.1k      18.41s   0.714%  ------ ||
|| cell_grid_extract_box_real           :  1402       18.85s   0.731%  ------ ||
|| xc_energy_potential                  :    75       22.13s   0.858%  ------ ||
|| sparse_blacstospam3_real_fast        :   258       24.37s   0.945%  ------ ||
|| properties_calculate                 :     1       31.55s   1.223%  ------ ||
|| fourier_apply_cell_forward           :   610       37.51s   1.455%  45.733 ||
|| cell_grid_deposit_box_real           :  3590       43.57s   1.690%  ------ ||
|| ngwf_gradient_build_batch            :    12       44.52s   1.727%  ------ ||
|| dense_eigensolve                     :   128       47.58s   1.845%  ------ ||
|| basis_add_function_to_box            : 2.771M      52.85s   2.049%  ------ ||
|| finite_difference_derivative         : 11739       54.04s   2.096%  ------ ||
|| edft_diag_ngwf_ham                   :   126       58.91s   2.285%  ------ ||
|| integrals_locpot_mat_els_batch       :   116       61.71s   2.393%  ------ ||
|| ngwf_gradient_batch                  :    12       69.31s   2.688%  ------ ||
|| ngwf_gradient_lnv                    :     3       72.65s   2.817%  ------ ||
|| hamiltonian_energy_components        :     2       74.41s   2.885%  ------ ||
|| edft_apply_smearing_operator         :    63       92.93s   3.604%  ------ ||
|| implicit_solvent_boltzmann_forces    :     2      111.98s   4.342%  ------ ||
|| density_batch_row_sums               :   292      118.06s   4.578%  ------ ||
|| density_fftbox_deposit_to_cell       :  3066      149.18s   5.785%  ------ ||
|| dl_mg_solver_calls                   :    73      204.17s   7.918%  ------ ||
|| multigrid_calculate_hartree          :    73      211.59s   8.205%  ------ ||
|| smeared_ion_force_correction         :     4      221.48s   8.589%  ------ ||
|| implicit_solvent_soft_sphere_forces  :     2      234.01s   9.074%  ------ ||
|| potential_apply_to_ngwf_batch        :   116      254.10s   9.854%  ------ ||
|| fourier_apply_box                    :  9801      292.97s  11.361%  2.612k ||
|| integrals_locpot_dbl_grid            :    58      316.13s  12.259%  ------ ||
|| density_fftbox_interpolate_multiply  :  3066      345.72s  13.407%  ------ ||
|| forces_calculate                     :     2      601.16s  23.312%  ------ ||
|| density_batch_interp_deposit         :   292      688.78s  26.710%  ------ ||
|| density_on_dbl_grid                  :   146      852.45s  33.057%  ------ ||
|| hamiltonian_lhxc_calculate           :    69     1049.25s  40.688%  ------ ||
|| edft_calculate                       :     3     1343.67s  52.106%  ------ ||
|| ngwf_cg_optimise                     :     2     1547.04s  59.992%  ------ ||
|| energy_and_forces                    :     2     2569.91s  99.658%  ------ ||
|| total_time                           :     1     2578.73s 100.000%  ------ ||
================================================================================
Overhead of generating timer report: 
- 0 ms averaging over threads,
- 12 ms ensuring consistency across MPI ranks,
- 1 ms printing in order.

Job completed: 10-10-2023 11:31 (+0100)

onetep_launcher: ONETEP seems to have finished correctly (zero exit code).
