1119      
Geometry optimisation iteration:    13 | Lattice="34.1692 0.0000 0.0000  0.0000 39.4552 0.0000  0.0000 0.0000 100.0000"
C    22.103107    1.165177    3.432685
C    26.373939    1.165354    3.371000
C    30.645589    1.165438    3.331079
C     6.443594    1.165204    3.342073
C    10.714714    1.165102    3.392486
C     2.172047    1.165371    3.325878
C    14.985285    1.165006    3.443292
C    19.255996    1.165091    3.452661
C    23.526805    1.165243    3.413936
C    27.797946    1.165439    3.352065
C    32.069659    1.165463    3.326382
C     0.748085    1.165378    3.325185
C     5.019692    1.165271    3.334252
C     9.291022    1.165164    3.372781
C    13.561673    1.165076    3.430650
C    17.832334    1.165034    3.455209
C    15.696932    2.398073    3.453499
C    19.967751    2.398212    3.455636
C    24.238509    2.398463    3.409378
C     4.307836    2.398531    3.326193
C    28.509674    2.398735    3.345855
C     0.036244    2.398634    3.320302
C     8.579180    2.398359    3.361597
C    12.849902    2.398188    3.425691
C    17.120611    2.398096    3.458803
C    21.391482    2.398271    3.445038
C    25.662337    2.398601    3.385897
C    29.933764    2.398718    3.332889
C    32.781433    2.398683    3.322166
C     2.883874    2.398580    3.322911
C     7.155359    2.398443    3.345377
C    11.426291    2.398257    3.405664
C    13.561412    3.631119    3.443629
C    17.832353    3.631095    3.468270
C     2.171990    3.631793    3.318321
C    22.103277    3.631350    3.448101
C    26.374108    3.631830    3.384292
C     6.443474    3.631632    3.339156
C    10.714388    3.631314    3.401718
C    14.985051    3.631058    3.456483
C    19.256028    3.631181    3.466087
C    23.527021    3.631514    3.430092
C    27.797997    3.631929    3.361018
C    30.645510    3.631946    3.330349
C     0.748016    3.631860    3.317837
C     5.019620    3.631724    3.328645
C    32.069565    3.631913    3.322267
C     9.290773    3.631455    3.378004
C     0.036084    4.864916    3.317055
C    11.425851    4.864022    3.425611
C    15.696761    4.863752    3.470999
C    19.967908    4.863909    3.473322
C    24.238925    4.864361    3.433762
C     4.307677    4.864743    3.325279
C     8.578763    4.864332    3.375368
C    12.849387    4.863836    3.445613
C    17.120413    4.863771    3.475570
C    21.391608    4.864040    3.464644
C    25.662639    4.864623    3.410325
C    28.509844    4.864856    3.362006
C    29.933709    4.864976    3.342358
C    32.781347    4.864923    3.321385
C     2.883804    4.864803    3.319589
C     7.155166    4.864577    3.353501
C     9.290186    6.096887    3.400920
C    13.560924    6.096286    3.464604
C    17.832344    6.096268    3.484099
C    22.103622    6.096600    3.469840
C    32.069453    6.097832    3.330111
C     2.171836    6.097691    3.319180
C     6.443149    6.097331    3.351938
C    10.713642    6.096551    3.426070
C    14.984598    6.096239    3.475103
C    19.256026    6.096341    3.482597
C    23.527360    6.096869    3.455776
C    26.374582    6.097237    3.414573
C    27.798244    6.097524    3.388602
C    30.645605    6.097777    3.344690
C     0.747956    6.097768    3.318751
C     5.019447    6.097536    3.335714
C     7.154676    7.329856    3.375257
C    11.425039    7.328934    3.449128
C    15.696365    7.328629    3.484073
C    19.968056    7.328846    3.485585
C    29.933952    7.330474    3.368513
C     0.036020    7.330598    3.325850
C     4.307457    7.330316    3.336674
C     8.578106    7.329469    3.400839
C    12.848653    7.328699    3.465705
C    17.120197    7.328733    3.486859
C    21.391879    7.329079    3.480325
C    25.663089    7.329724    3.441031
C    24.239325    7.329419    3.459725
C    28.510206    7.330197    3.393358
C    32.781316    7.330634    3.334438
C     2.883647    7.330517    3.327584
C     5.019055    8.563179    3.356783
C     9.289392    8.562085    3.426962
C    13.560148    8.561397    3.476253
C    17.832125    8.561417    3.485744
C    27.798726    8.562938    3.422651
C    32.069606    8.563576    3.355260
C     2.171747    8.563540    3.334956
C     6.442665    8.562766    3.377168
C    10.712896    8.561681    3.448109
C    23.527716    8.562156    3.472086
C    14.984080    8.561343    3.482434
C    19.256134    8.561587    3.484695
C    22.103805    8.561841    3.479560
C    26.374921    8.562544    3.444680
C    30.645800    8.563345    3.375394
C     0.747855    8.563610    3.335284
C     7.153929    9.795671    3.404773
C    11.424170    9.794619    3.461811
C    15.695731    9.794390    3.477909
C    25.663476    9.795625    3.460399
C    29.934350    9.796331    3.405788
C     0.036073    9.796811    3.354394
C     4.307139    9.796367    3.364573
C    21.392083    9.794819    3.475088
C     8.577450    9.795152    3.427073
C    12.847970    9.794390    3.471382
C    17.120010    9.794516    3.477140
C    19.968017    9.794611    3.475683
C    24.239528    9.795171    3.469841
C    28.510518    9.795959    3.428056
C    32.781401    9.796697    3.366666
C     2.883388    9.796669    3.353917
C     5.018466   11.029376    3.392262
C     9.288673   11.028134    3.445949
C    13.559479   11.027484    3.466174
C    23.527951   11.028359    3.464368
C    27.799060   11.029080    3.448364
C    19.256052   11.027805    3.457202
C    32.069898   11.029751    3.396604
C     2.171536   11.029795    3.371894
C     6.442028   11.028902    3.410025
C    10.712251   11.027727    3.457440
C    14.983576   11.027587    3.464854
C    17.831763   11.027653    3.458275
C    22.103907   11.027977    3.462492
C    26.375190   11.028744    3.459331
C    30.646128   11.029429    3.415275
C     0.747748   11.029940    3.373349
C    32.781624   12.262653    3.412023
C     2.883050   12.262644    3.398008
C     7.153284   12.261777    3.433297
C    21.392088   12.261034    3.436100
C    11.423658   12.260758    3.455745
C    17.119603   12.260821    3.433029
C    25.663666   12.261815    3.457018
C    29.934633   12.262422    3.439661
C     0.036040   12.262804    3.400927
C     4.306577   12.262343    3.405948
C     8.576770   12.261255    3.445406
C    12.847431   12.260653    3.452694
C    15.695254   12.260749    3.439887
C    19.967840   12.260826    3.429966
C    24.239778   12.261404    3.452737
C    28.510890   12.262026    3.451209
C    30.646482   13.495199    3.447509
C     0.747726   13.495455    3.421849
C    19.255716   13.493602    3.391257
C     5.017961   13.495055    3.430156
C     9.288098   13.494118    3.449618
C    23.528135   13.494232    3.425283
C    27.799358   13.495031    3.455195
C    32.070045   13.495401    3.437475
C     2.171208   13.495370    3.419477
C     6.441359   13.494677    3.438347
C    10.711689   13.493813    3.446902
C    13.559053   13.493658    3.425178
C    17.831321   13.493606    3.393053
C    22.104123   13.493905    3.409737
C    14.983136   13.493800    3.412678
C    26.375605   13.494609    3.450760
C    17.119077   14.726412    3.355275
C    28.511310   14.727800    3.455206
C    32.781825   14.728036    3.449615
C     2.882728   14.728013    3.439932
C     7.152681   14.727459    3.447102
C    21.392170   14.726457    3.366126
C    25.664068   14.727420    3.429939
C    29.934926   14.728025    3.457401
C     0.036084   14.728088    3.443563
C     4.306145   14.727759    3.441550
C     8.576210   14.727123    3.445340
C    11.423333   14.726657    3.424279
C    12.847076   14.726611    3.404513
C    15.694767   14.726424    3.367525
C    19.967735   14.726260    3.352806
C    24.240280   14.727064    3.409039
C    26.376104   15.960421    3.424270
C    30.646683   15.960880    3.461566
C     0.747694   15.960910    3.456468
C     5.017536   15.960706    3.451741
C    14.982724   15.959508    3.339304
C    19.255575   15.959057    3.313262
C    23.528610   15.959778    3.370894
C    27.799884   15.960762    3.443428
C    32.070294   15.960934    3.461600
C     2.171079   15.960840    3.453705
C     6.440921   15.960457    3.448447
C     9.287637   15.960092    3.431156
C    10.711318   15.959931    3.412924
C    13.558719   15.959507    3.362605
C    17.831026   15.959109    3.312960
C    22.104388   15.959494    3.343764
C    24.240747   17.193142    3.364564
C    28.511689   17.193883    3.443254
C    32.781962   17.194061    3.467090
C     2.882585   17.193958    3.461516
C    12.846801   17.193090    3.350336
C    17.118883   17.192548    3.287526
C    21.392431   17.192523    3.308131
C    25.664716   17.193536    3.395050
C    29.935327   17.194075    3.457092
C     0.036269   17.194072    3.465853
C     4.305911   17.193878    3.457154
C     8.575752   17.193536    3.427143
C     7.152242   17.193797    3.442035
C    11.422927   17.193123    3.379837
C    15.694464   17.192650    3.300065
C    19.967750   17.192407    3.290789
C    22.104568   18.426250    3.305639
C    26.376677   18.427032    3.394778
C    30.646892   18.427345    3.458766
C     0.747734   18.427347    3.469215
C    10.711040   18.426876    3.377855
C    14.982560   18.426408    3.292627
C    19.255548   18.426104    3.270678
C    23.529060   18.426523    3.334255
C    27.800444   18.427189    3.422032
C     6.440677   18.427197    3.442674
C    32.070522   18.427386    3.466387
C     2.171096   18.427246    3.466187
C     5.017353   18.427247    3.454683
C     9.287254   18.426936    3.404996
C    13.558386   18.426512    3.317775
C    17.830923   18.426142    3.267268
C    24.241078   19.660191    3.339195
C    28.512031   19.660467    3.423932
C    32.782035   19.660565    3.466575
C     8.575509   19.660397    3.408249
C    12.846700   19.660201    3.323444
C    17.118935   19.659941    3.264544
C    21.392445   19.659854    3.288313
C     4.305848   19.660459    3.456579
C    25.665163   19.660291    3.367909
C    29.935574   19.660529    3.444883
C     0.036287   19.660522    3.468609
C     2.882527   19.660496    3.464292
C     7.152105   19.660447    3.429608
C    11.422745   19.660266    3.353004
C    15.694472   19.659995    3.275723
C    19.967690   19.659863    3.271072
C    10.001948    4.861287    6.663591
C     7.154770    4.862978    6.628063
C     7.865795    6.094334    6.643566
C     9.288531    6.092452    6.663496
C    27.107998   14.723922    6.709710
C    24.264800   14.717847    6.662615
C    24.980199   15.953418    6.652330
C    26.402825   15.956521    6.678789
C     7.867341    3.631153    6.629699
C     9.290460    3.630258    6.643151
C    11.421656    7.320344    6.713679
C     9.998928    7.323241    6.688739
C     7.153250    7.326071    6.643680
C     7.863779    8.557710    6.666079
C     9.286034    8.554993    6.688400
C    24.972284   13.487364    6.704055
C    26.394660   13.489826    6.717386
C    28.535974   17.194330    6.707043
C    27.115837   17.191937    6.676754
C    24.272509   17.185430    6.614463
C    24.987494   18.426788    6.607416
C    26.411545   18.428296    6.644510
C     7.868022    1.167185    6.627780
C     9.291452    1.166841    6.636771
C    12.139865    1.166276    6.666978
C     5.020795    1.167125    6.616680
C    33.497035    1.168217    6.612877
C     3.597696    1.167559    6.615003
C    16.412096    1.166040    6.710141
C     0.751020    1.168181    6.612585
C    13.563180    1.165916    6.683419
C    17.835647    1.166305    6.713623
C    20.684458    1.167134    6.699587
C    29.227222    1.168551    6.618760
C    30.650563    1.168353    6.614637
C    24.956299    1.168057    6.649007
C    22.107953    1.167549    6.683269
C    26.379711    1.168342    6.634742
C    10.003324    2.398635    6.645626
C     7.155761    2.399258    6.622044
C     5.732417    2.399484    6.616806
C    14.275500    2.397241    6.700903
C     2.885647    2.400070    6.611061
C    11.426823    2.397819    6.662168
C    31.362359    2.400731    6.612494
C     1.462609    2.400556    6.610640
C    18.548441    2.397870    6.723715
C    32.785497    2.400564    6.610360
C    15.699058    2.397245    6.715060
C    22.820662    2.399597    6.683435
C    27.092052    2.400779    6.632416
C    19.972077    2.398332    6.715682
C    28.515462    2.401009    6.621962
C    24.244305    2.399999    6.663402
C    12.138737    3.629066    6.684432
C    33.497313    3.632773    6.608836
C     3.597077    3.632463    6.610793
C    16.411774    3.628346    6.736009
C    20.685111    3.629765    6.725526
C    30.650729    3.633218    6.614235
C     0.751023    3.632663    6.607970
C     5.020304    3.632056    6.613653
C    13.562324    3.628298    6.705471
C    17.835437    3.628457    6.739573
C    29.227531    3.633441    6.621656
C    24.957009    3.632275    6.666356
C    22.108714    3.630586    6.707897
C    26.380498    3.632836    6.646853
C    27.093149    4.865061    6.650597
C    31.362534    4.865684    6.614374
C     1.462619    4.864689    6.607601
C    14.274709    4.858398    6.731968
C    18.548891    4.859089    6.755088
C    22.822228    4.861928    6.716652
C    28.516250    4.865534    6.633494
C    32.785746    4.865244    6.609446
C     2.885488    4.864761    6.608664
C    11.424994    4.859900    6.686833
C    15.697977    4.858059    6.746176
C    19.972584    4.859520    6.748108
C    24.245615    4.863353    6.693685
C     5.731816    4.864216    6.618751
C    24.959197    6.094851    6.701632
C    29.228588    6.097456    6.636805
C    33.497331    6.097710    6.610277
C    16.411529    6.087908    6.761591
C    20.686937    6.090191    6.757434
C    26.382326    6.096251    6.676556
C    30.651422    6.097907    6.623209
C     0.751207    6.097177    6.607853
C    17.835504    6.088395    6.765206
C    22.110862    6.091551    6.743280
C     3.597072    6.096798    6.612012
C    12.136462    6.090236    6.714574
C    13.559852    6.088063    6.735913
C     5.019771    6.096219    6.617699
C    24.248898    7.324934    6.731090
C    22.825365    7.322524    6.749530
C    27.095294    7.328017    6.683086
C    31.363621    7.329876    6.626721
C    18.550553    7.318505    6.767905
C    28.518097    7.328937    6.659010
C    32.786308    7.330187    6.617069
C    15.697131    7.316792    6.758064
C    19.975177    7.319219    6.765678
C     1.462743    7.329728    6.611148
C    14.271791    7.317374    6.750594
C     2.885660    7.329083    6.612776
C     5.730760    7.327743    6.629140
C    24.962517    8.557080    6.735824
C    29.230591    8.561379    6.665139
C    22.114742    8.552134    6.758208
C    26.385561    8.559291    6.712790
C    20.690775    8.549697    6.760348
C    33.498177    8.562519    6.622157
C    16.413049    8.544135    6.750272
C    30.653527    8.562067    6.645095
C    17.837535    8.546392    6.754606
C     3.596739    8.561384    6.622145
C     0.751656    8.562530    6.617128
C    13.553942    8.544376    6.745181
C    12.131749    8.550512    6.730939
C     5.019166    8.560091    6.630979
C    27.098257    9.792162    6.716267
C    24.253250    9.787825    6.748783
C    22.829540    9.784077    6.753932
C    28.521157    9.793882    6.693002
C    18.553750    9.776906    6.732087
C    31.365533    9.794962    6.652695
C    19.980351    9.777982    6.736754
C    32.788228    9.795327    6.638046
C    15.697834    9.774494    6.722959
C     1.463109    9.795195    6.626800
C    14.266084    9.775936    6.731834
C     2.885603    9.794365    6.628482
C     5.729627    9.792597    6.650416
C     9.995919    9.786356    6.710483
C    11.417763    9.782425    6.724330
C     7.151837    9.790593    6.668664
C    24.966797   11.021024    6.742424
C    26.389682   11.024134    6.732432
C    29.233197   11.027263    6.699427
C    22.120574   11.013273    6.732751
C    16.409933   11.011427    6.696244
C    20.695522   11.010159    6.713865
C    33.499777   11.028240    6.649521
C    17.842817   11.009199    6.685547
C    30.655861   11.028029    6.679157
C     0.752777   11.028180    6.641721
C     3.596243   11.027312    6.646381
C    12.125055   11.013762    6.723927
C    13.549700   11.011672    6.712638
C     7.861471   11.022937    6.694362
C     5.018345   11.025923    6.657040
C     9.283209   11.018834    6.712178
C    27.102461   12.257666    6.728761
C    24.259467   12.252682    6.726018
C    22.836174   12.248148    6.715986
C    31.367825   12.260949    6.690519
C    19.983027   12.243085    6.659966
C    28.524963   12.259699    6.719860
C    14.267117   12.245746    6.682613
C    18.553586   12.244898    6.623374
C     1.463713   12.260992    6.659801
C    15.694721   12.247458    6.675340
C    32.790153   12.261285    6.675032
C     5.727940   12.258793    6.681615
C     9.992771   12.250749    6.725481
C     2.885507   12.260308    6.660588
C    11.413420   12.245748    6.721613
C     7.149190   12.256024    6.697737
C    29.237270   13.492440    6.723938
C    16.410035   13.485643    6.657246
C    20.697199   13.481352    6.616338
C    33.501555   13.494203    6.692246
C     3.595535   13.493301    6.684079
C    13.551750   13.481877    6.653631
C    17.838771   13.482428    6.628345
C    22.126069   13.481727    6.654490
C    30.659028   13.493831    6.715496
C     0.753924   13.494050    6.683606
C    12.128266   13.477681    6.695825
C     7.858028   13.488929    6.713690
C     5.016592   13.491785    6.691248
C     9.277896   13.483678    6.724073
C     9.987170   14.717182    6.708270
C    14.265868   14.716782    6.596706
C    18.553276   14.715013    6.523779
C    31.370815   14.726717    6.726894
C     1.464159   14.727233    6.704805
C     5.725446   14.725523    6.706239
C    11.412889   14.716494    6.683070
C    15.697722   14.717852    6.621095
C    19.982083   14.714681    6.549452
C    28.530015   14.725764    6.723649
C    32.792366   14.727374    6.718814
C     2.885114   14.726590    6.702270
C     7.145717   14.723631    6.708251
C    22.844075   14.717618    6.632750
C     7.850972   15.958388    6.693066
C    12.129135   15.952352    6.607963
C    16.409922   15.953760    6.528074
C    33.502924   15.960758    6.733660
C     3.594250   15.960513    6.717146
C     9.272215   15.955880    6.669575
C    13.555276   15.949490    6.567084
C    17.842147   15.952144    6.512459
C     0.754739   15.960625    6.727139
C     5.014832   15.959629    6.711106
C    20.700141   15.949158    6.522804
C    29.241656   15.959418    6.726571
C    30.662778   15.960393    6.736464
C    22.131034   15.947807    6.554015
C     7.142107   17.193852    6.682573
C     5.723210   17.194676    6.704056
C     9.987405   17.191858    6.611833
C    14.270725   17.190730    6.555003
C     1.464271   17.194596    6.738684
C    11.412929   17.190858    6.583946
C    15.696988   17.187558    6.479377
C    32.793899   17.194610    6.746548
C     2.884501   17.194529    6.730336
C    18.556891   17.188984    6.477465
C    31.372959   17.194380    6.743548
C    19.986768   17.187742    6.493342
C    22.845183   17.185848    6.572006
C     7.851275   18.428607    6.657126
C    12.132167   18.426918    6.581152
C     5.013250   18.429309    6.709110
C     9.270494   18.429022    6.626992
C     3.593576   18.429199    6.728790
C    16.413096   18.427609    6.493980
C    33.503592   18.429038    6.751364
C    13.556363   18.426160    6.535168
C     0.755174   18.429024    6.748220
C    20.703578   18.422488    6.506847
C    17.842698   18.425743    6.456576
C    30.665076   18.429148    6.733596
C    29.245019   18.429012    6.709441
C    22.129890   18.423987    6.547947
C     9.986162   19.662643    6.586113
C     7.141044   19.663372    6.660527
C     5.722369   19.663574    6.691329
C    11.414246   19.663345    6.570051
C     1.464210   19.663610    6.745649
C    14.273231   19.663939    6.544105
C     2.884219   19.663477    6.734263
C    15.697804   19.663217    6.464555
C    32.794526   19.663764    6.746807
C    18.557429   19.662531    6.465754
C    31.373905   19.663864    6.735148
C    19.986317   19.664989    6.492809
C    22.844825   19.664874    6.577825
C    27.119844   19.665225    6.645304
C    28.538187   19.664142    6.679460
C    24.274320   19.664806    6.604939
C    22.104692   20.893361    3.300355
C    26.376978   20.893489    3.373675
C    30.647095   20.893517    3.446101
C     6.440625   20.893521    3.433979
C    10.710897   20.893649    3.365134
C     2.171053   20.893541    3.462902
C    14.982494   20.893498    3.289307
C    19.255496   20.893332    3.271255
C    23.529139   20.893472    3.322200
C    27.800592   20.893424    3.401484
C    32.070528   20.893513    3.457680
C     0.747796   20.893492    3.465409
C     5.017410   20.893491    3.448699
C     9.287208   20.893667    3.392133
C    13.558400   20.893650    3.310621
C    17.831108   20.893393    3.267705
C    15.694572   22.126871    3.295986
C    19.967715   22.126538    3.290413
C    24.241102   22.126636    3.335524
C     4.305907   22.126391    3.449639
C    28.512061   22.126373    3.408342
C     0.036258   22.126289    3.458070
C     8.575621   22.126749    3.405927
C    12.846735   22.126876    3.333871
C    17.119001   22.126643    3.287477
C    21.392353   22.126686    3.301532
C    25.665062   22.126492    3.357578
C    29.935507   22.126245    3.429774
C    32.782102   22.126328    3.454497
C     2.882681   22.126350    3.456399
C     7.152272   22.126463    3.424922
C    11.422874   22.126976    3.358624
C    13.558604   23.360179    3.344266
C    17.831151   23.359852    3.312334
C     2.171242   23.359189    3.450498
C    22.104583   23.359913    3.324122
C    26.376559   23.359559    3.372671
C     6.440955   23.359491    3.433595
C    10.711135   23.360102    3.385311
C    14.982762   23.360078    3.327950
C    19.255700   23.359786    3.312413
C    23.528937   23.359830    3.336736
C    27.800256   23.359204    3.394600
C    30.646947   23.359174    3.431628
C     0.747869   23.359165    3.450803
C     5.017598   23.359261    3.443368
C    32.070486   23.359075    3.441851
C     9.287472   23.359950    3.404518
C     0.036357   24.592156    3.438959
C    11.423113   24.593537    3.398149
C    15.694810   24.593392    3.354655
C    19.967916   24.593205    3.343359
C    24.240595   24.593086    3.360777
C     4.306257   24.592438    3.442628
C     8.576209   24.593107    3.424955
C    12.847076   24.593445    3.381914
C    17.119290   24.593167    3.347748
C    21.392446   24.593212    3.345250
C    25.664500   24.592714    3.373945
C    28.511547   24.592374    3.406441
C    29.935215   24.592111    3.419870
C    32.782013   24.592165    3.435793
C     2.882884   24.592227    3.443348
C     7.152703   24.592702    3.434202
C     9.288019   25.826541    3.435958
C    13.559110   25.826880    3.406754
C    17.831472   25.826675    3.381459
C    22.104351   25.826647    3.375898
C    32.070391   25.825296    3.423564
C     2.171489   25.825455    3.433061
C     6.441505   25.826058    3.441949
C    10.711731   25.826840    3.428262
C    14.983354   25.826678    3.396143
C    19.256043   25.826558    3.377557
C    23.528504   25.826388    3.379919
C    26.375837   25.826016    3.396086
C    27.799650   25.825557    3.405752
C    30.646673   25.825434    3.420447
C     0.747967   25.825391    3.429548
C     5.017985   25.825700    3.441301
C     7.153316   27.059298    3.448727
C    11.423760   27.060125    3.445915
C    15.695431   27.059946    3.425336
C    19.968106   27.059947    3.408456
C    29.934895   27.058498    3.415983
C     0.036393   27.058450    3.415474
C     4.306685   27.058935    3.435754
C     8.576883   27.059706    3.450507
C    12.847679   27.060143    3.439955
C    17.119794   27.059852    3.418409
C    21.392389   27.059750    3.406247
C    25.663978   27.059127    3.410539
C    24.240037   27.059581    3.407981
C    28.511037   27.058816    3.416124
C    32.781924   27.058508    3.414525
C     2.883155   27.058669    3.427796
C     5.018489   28.291931    3.438198
C     9.288884   28.292656    3.461671
C    13.559827   28.293110    3.459129
C    17.831978   28.292915    3.443169
C    27.799234   28.291737    3.423166
C    32.070181   28.291400    3.405397
C     2.171648   28.291632    3.413616
C     6.442003   28.292253    3.448776
C    10.712497   28.292973    3.462893
C    23.528162   28.292437    3.431014
C    14.983822   28.292912    3.454644
C    19.256224   28.292784    3.438483
C    22.104147   28.292725    3.433168
C    26.375415   28.292088    3.427506
C    30.646436   28.291579    3.411491
C     0.748037   28.291463    3.406045
C     7.153924   29.524960    3.455488
C    11.424647   29.525542    3.473648
C    15.696124   29.525657    3.470242
C    25.663579   29.524735    3.441415
C    29.934558   29.524290    3.411612
C     0.036340   29.524186    3.392640
C     4.307009   29.524620    3.426259
C    21.392179   29.525349    3.454672
C     8.577487   29.525255    3.464585
C    12.848266   29.525667    3.474033
C    17.120146   29.525528    3.465658
C    19.968253   29.525523    3.458111
C    24.239785   29.525084    3.447881
C    28.510817   29.524541    3.423675
C    32.781859   29.524194    3.394083
C     2.883489   29.524400    3.411159
C     5.018879   30.757292    3.429251
C     9.289545   30.757840    3.470058
C    13.560532   30.758104    3.481585
C    23.527825   30.757599    3.460758
C    27.798927   30.757115    3.429474
C    19.256227   30.758021    3.472925
C    32.069984   30.756859    3.388269
C     2.171847   30.757011    3.394858
C     6.442447   30.757561    3.445885
C    10.713168   30.758044    3.476127
C    14.984344   30.758189    3.481081
C    17.832350   30.758110    3.476452
C    22.103994   30.757849    3.466634
C    26.375161   30.757406    3.443335
C    30.646193   30.757034    3.400263
C     0.748152   30.756938    3.385187
C    32.781698   31.989777    3.376230
C     2.883697   31.989862    3.393630
C     7.154389   31.990342    3.448025
C    21.391998   31.990505    3.474260
C    11.425230   31.990660    3.477967
C    17.120425   31.990688    3.483150
C    25.663227   31.990083    3.448568
C    29.934284   31.989790    3.400136
C     0.036380   31.989745    3.373706
C     4.307365   31.990039    3.411281
C     8.578050   31.990535    3.461119
C    12.848973   31.990727    3.481722
C    15.696586   31.990759    3.484511
C    19.968158   31.990615    3.478648
C    24.239397   31.990311    3.460692
C    28.510453   31.989952    3.417744
C    30.645922   33.222865    3.383716
C     0.748169   33.222874    3.367738
C    19.256181   33.223488    3.480335
C     5.019209   33.223118    3.410872
C     9.289990   33.223490    3.458929
C    23.527499   33.223236    3.461968
C    27.798626   33.222958    3.417541
C    32.069896   33.222854    3.371272
C     2.172049   33.222933    3.376660
C     6.442905   33.223275    3.429005
C    10.713702   33.223549    3.468085
C    13.561036   33.223585    3.479851
C    17.832383   33.223515    3.482863
C    22.103657   33.223387    3.471230
C    14.984849   33.223561    3.482070
C    26.374729   33.223093    3.435548
C    17.120565   34.456444    3.478283
C    28.510124   34.456063    3.397154
C    32.781596   34.456028    3.359745
C     2.883843   34.456106    3.373731
C     7.154793   34.456326    3.424163
C    21.391738   34.456352    3.468543
C    25.662879   34.456134    3.432243
C    29.934093   34.455958    3.380259
C     0.036367   34.456037    3.357552
C     4.307644   34.456162    3.388757
C     8.578513   34.456429    3.439035
C    11.425686   34.456503    3.462044
C    12.849451   34.456520    3.468839
C    15.696801   34.456431    3.477534
C    19.967953   34.456400    3.474850
C    24.239022   34.456218    3.448168
C    26.374414   35.689084    3.409997
C    30.645764   35.689037    3.362828
C     0.748149   35.689150    3.351777
C     5.019500   35.689178    3.382924
C    14.985077   35.689291    3.466759
C    19.256082   35.689295    3.469075
C    23.527128   35.689151    3.442848
C    27.798261   35.689058    3.391606
C    32.069738   35.689087    3.353825
C     2.172059   35.689143    3.357521
C     6.443231   35.689202    3.398457
C     9.290490   35.689323    3.429837
C    10.714193   35.689356    3.442168
C    13.561405   35.689369    3.461488
C    17.832398   35.689315    3.471577
C    22.103362   35.689224    3.455811
C    24.238758   36.921863    3.422774
C    28.509945   36.921809    3.369742
C    32.781569   36.921945    3.344177
C     2.883920   36.921951    3.352223
C    12.849754   36.921994    3.444084
C    17.120550   36.922010    3.462852
C    21.391435   36.921931    3.450587
C    25.662538   36.921866    3.404061
C    29.933856   36.921882    3.356721
C     0.036250   36.922011    3.342808
C     4.307735   36.921920    3.361233
C     8.578897   36.921948    3.403280
C     7.155197   36.921940    3.388440
C    11.426218   36.922019    3.432845
C    15.696988   36.922013    3.460262
C    19.967810   36.921981    3.459284
C    22.103167   38.154569    3.436821
C    26.374177   38.154575    3.382154
C    30.645691   38.154668    3.343199
C     0.748158   38.154718    3.337141
C    10.714558   38.154553    3.409759
C    14.985221   38.154617    3.448378
C    19.255926   38.154607    3.454657
C    23.526818   38.154581    3.420230
C    27.798031   38.154574    3.364550
C     6.443470   38.154558    3.363987
C    32.069622   38.154698    3.337890
C     2.172006   38.154668    3.339492
C     5.019671   38.154582    3.353548
C     9.290929   38.154562    3.393828
C    13.561704   38.154569    3.439011
C    17.832379   38.154624    3.457292
C    24.238466   39.387404    3.404538
C    28.509766   39.387493    3.349295
C    32.781496   39.387559    3.330916
C     8.579200   39.387293    3.371266
C    12.850005   39.387261    3.424116
C    17.120592   39.387303    3.452757
C    21.391400   39.387350    3.438561
C     4.307799   39.387380    3.338267
C    25.662279   39.387414    3.383384
C    29.933779   39.387525    3.338793
C     0.036249   39.387522    3.329844
C     2.883897   39.387451    3.334139
C     7.155424   39.387310    3.357218