 +---------------------------------------------------------------+
 |                                                               |
 |        ####### #     # ####### ####### ####### ######         |
 |        #     # ##    # #          #    #       #     #        |
 |        #     # # #   # #          #    #       #     #        |
 |        #     # #  #  # #####      #    #####   ######         |
 |        #     # #   # # #          #    #       #              |
 |        #     # #    ## #          #    #       #              |
 |        ####### #     # #######    #    ####### #              |
 |                                                               |
 |        Linear-Scaling Ab Initio Total Energy Program          |
 |                                                               |
 |          Release for academic collaborators of ODG            |
 |                                             Version 6.1.59    |
 | Remote: https://github.com/onetep-devel/onetep.git            |
 | Local branch: master                                          |
 | Commit ID: 3df6b8ca88fa1735659d3248d54c94b50edec21b           |
 | Date: Thu Oct 5 13:49:52 2023 +0200                           |
 | Working tree clean                                            |
 |                                                               |
 +---------------------------------------------------------------+
 |                                                               |
 |  Authors:                                                     |
 |  Jacek Dziedzic, Peter D. Haynes, Nicholas D. M. Hine,        |
 |  Arash A. Mostofi, Mike C. Payne and Chris-Kriton Skylaris    |
 |                                                               |
 |  Contributors:                                                |
 |  J. Aarons, L. Andrinopoulos, P. W. Avraam, R. A. Bell,       |
 |  A. Bhandari, G. A. Bramley, R. J. Charlton, S. J. Clark,     |
 |  R. J. Clements, G. C. Constantinescu, F. Corsetti,           |
 |  N. Corsini, O. Dieguez, S. M. M. Dubois, K. K. B. Duff,      |
 |  J. M. Escartin, M. Escobar Azor, A. Greco,                   |
 |  H. Helal, Q. O. Hill, L. P. Lee, J.-H. Li,                   |
 |  E. B. Linscott, G. Moynihan, D. D. O`Regan,                  |
 |  O. K. Okan, M. J. S. Phipps, C. J. Pickard,                  |
 |  J. C. A. Prentice, M. I. J. Probert, L. E. Ratcliff,         |
 |  M. Robinson, A. Ruiz Serrano, M. dos Santos Dias,            |
 |  J. S. Spencer, E. W. Tait, G. Teobaldi, D. Turban,           |
 |  V. Vitale, K. A. Wilkinson, C. Weber, J. C. Womack,          |
 |  N. Yeung and T. J. Zuehlsdorff                               |
 |                                                               |
 |                                   Copyright (c) 2004-2023     |
 |                                                               |
 |  Please cite:                                                 |
 |  "The ONETEP linear-scaling density functional theory program"|
 |   J. Chem. Phys. 152(17) 174111 (2020)                        |
 |                                                               |
 |          in all publications arising from your use of ONETEP. |
 |                                                               |
 +---------------------------------------------------------------+
 |                                                               |
 |   ONETEP is based on developments described in the following  |
 |   publications:                                               |
 |                                                               |
 |  "Nonorthogonal generalized Wannier function pseudopotential  |
 |   plane-wave method".                                         |
 |   C.-K. Skylaris, A. A. Mostofi, P. D. Haynes, O. Dieguez,    |
 |   M. C. Payne.                                                |
 |   Phys. Rev. B 66 035119 (2002).                              |
 |                                                               |
 |  "Preconditioned iterative minimization for linear-scaling    |
 |   electronic structure calculations".                         |
 |   A. A. Mostofi, P. D. Haynes, C.-K. Skylaris, M. C. Payne.   |
 |   J. Chem. Phys. 119(17), pp.8842-8848 (2003).                |
 |                                                               |
 |  "Total-energy calculations on a real space grid with         |
 |   localized functions and a plane-wave basis".                |
 |   A. A. Mostofi, C.-K. Skylaris, P. D. Haynes, M. C. Payne.   |
 |   Comput. Phys. Commun. 147, pp.788-802 (2002).               |
 |                                                               |
 |  "Accurate kinetic energy evaluation in electronic structure  |
 |   calculations with localized functions on real space grids"  |
 |   C.-K. Skylaris, A. A. Mostofi, P. D. Haynes, C. J. Pickard, |
 |   M. C. Payne.                                                |
 |   Comput. Phys. Commun. 140, pp.315-322 (2001).               |
 |                                                               |
 |  "Accurate ionic forces and geometry optimization in linear-  |
 |   scaling density-functional theory with local orbitals"      |
 |   N. D. M. Hine, M. Robinson, P. D. Haynes, C.-K. Skylaris,   |
 |   M. C. Payne, and A. A. Mostofi.                             |
 |   Phys. Rev. B 83 195102 (2011).                              |
 |                                                               |
 +---------------------------------------------------------------+

Job started: 31-10-2023 23:34 (+0000)
 
Reading parameters from file "graphite.dat" ...... done

If your calculation crashes here, before "Checking processes and threads..."
is displayed, then your stack size is insufficient.
If so, use "ulimit -s unlimited" at runtime.
You can disable this check with "check_stack_size F".

Checking processes and threads...
   Determining the default number of threads...
      No default threads set at compilation time: defaulting to 1.
      OpenMP library call suggests 8 threads.
      Hybrid MPI-OpenMP compilation detected.
      Number of MPI processes > 1.
      OMP_NUM_THREADS environment variable present and
      its value matches the one obtained from the OpenMP library call.
      Using this value as default.
      Default threads: 8
      Default applies to threads_max and threads_num_fftboxes.
      Settings in the input file override this default.
   ... done

   Running with 128 MPI processes.
   There are 16 MPI processes running on the same node as the root process.
   Each MPI process is using: 
               1 threads for simulation cell FFTs.
               1 threads for parallel FFT box operations.
               8 threads for loops over batched FFT box operations.
               8 threads in other parallel regions.
   MPI Interface: S1 (use mpi_f08) (-DMPI -DUSE_MPI_F08).
   MPI_ASYNC_PROTECTS_NONBLOCKING: Yes. MPI_SUBARRAYS_SUPPORTED: Yes.
   GPU Interface: None.
... done

Basic input checks...
Resetting ngwf_cg_rotate to TRUE for EDFT calculations
... done

Reading geometry and species blocks from file "graphite.dat" ...
  Reading POSITIONS geometry from str.xyz

  <species_atomic_set> block not found: NGWF initialisation set to SOLVE
IS: Dielectric excluded regions:
    - NONE.
IS: Assigning soft sphere radii for soft sphere solvation...
IS: No soft sphere radii specified. Default Alvarez radii used for all atoms.

----------- SOFT SPHERE RADII -----------
Li  5.333
C   4.442
-----------------------------------------

    
  Number of PPD points along a3 set to 1.  This is 
  the default value, it may have been provided also in the input file.
... done


--------------------------------------------------------------------------------
---------------------------------- INPUT FILE ----------------------------------
--------------------------------------------------------------------------------

task geometryoptimization                                                       
geom_method LBFGS                                                               
geom_continuation T                                                             
write_xyz T                                                                     
edft_grand_canonical T                                                          
edft_reference_potential  -4.42 eV                                              
edft_electrode_potential 0.0 V                                                  
edft_nelec_thres 0.000001                                                       
is_dielectric_function soft_sphere                                              
is_implicit_solvent T                                                           
is_smeared_ion_rep T                                                            
is_include_apolar T                                                             
is_solvation_properties F                                                       
is_pbe                    full                                                  
is_pbe_temperature        298.15                                                
is_pbe_bc_debye_screening T                                                     
is_pbe_neutralisation_scheme counterions_auto                                   
is_pbe_energy_tolerance 1E+50                                                   
is_bc_coarseness 5                                                              
is_bc_threshold 1E-9                                                            
is_bulk_permittivity 90.7                                                       
is_solvent_surf_tension 0.0506 N/m                                              
%block sol_ions                                                                 
Li  +1 1.0                                                                      
PF6 -1 1.0                                                                      
%endblock sol_ions                                                              
is_steric_pot_type M                                                            
is_hc_steric_dens_isovalue  0.001                                               
is_hc_steric_smearing         0.4 bohr                                          
is_steric_write T                                                               
%block species_solvent_radius                                                   
Li 3.0                                                                          
C 3.0                                                                           
%endblock species_solvent_radius                                                
multigrid_bc:   P P P                                                           
ion_ion_bc:     P P P                                                           
pspot_bc:       P P P                                                           
smeared_ion_bc: P P P                                                           
mg_max_iters_vcycle 500                                                         
mg_vcyc_smoother_iter_pre 4                                                     
mg_vcyc_smoother_iter_post 4                                                    
mg_max_res_ratio 1000.0                                                         
mg_max_iters_newton 300                                                         
edft                    : T                                                     
edft_smearing_width     : 0.1 eV                                                
spin                    : 0.0                                                   
edft_spin_fix           : 2                                                     
spin_polarized          : T                                                     
cutoff_energy :  1000 eV                                                        
kernel_cutoff : 1000 bohr                                                       
xc_functional PBE                                                               
dispersion 4                                                                    
output_detail VERBOSE                                                           
do_properties T                                                                 
cube_format F                                                                   
dx_format F                                                                     
write_denskern T                                                                
write_tightbox_ngwfs T                                                          
write_hamiltonian T                                                             
%block species                                                                  
Li Li 3  5  8.0                                                                 
C  C  6  4  8.0                                                                 
%endblock species                                                               
%block species_pot                                                              
Li '/work/e89/e89/arihant/pseudo/Li.usp'                                        
C '/work/e89/e89/arihant/pseudo/C.usp'                                          
%endblock species_pot                                                           
%BLOCK LATTICE_CART                                                             
ang                                                                             
34.16920551     0.00000000     0.00000000                                       
0.00000000    19.72760000     0.00000000                                        
0.00000000     0.00000000   100.02798000                                        
%ENDBLOCK LATTICE_CART                                                          
positions_xyz_file str.xyz                                                      
     Hash =   000008393249018618214921

--------------------------------------------------------------------------------
-------------------------------- END INPUT FILE --------------------------------
--------------------------------------------------------------------------------


 
 ESDF WARNING(1): "ispbeenergytolerance" (esdf_physical) has no units. Assume "hartree".
<<<<<<<<<<<<<<<<<<<<<<<<<<<<<<<<< Full system >>>>>>>>>>>>>>>>>>>>>>>>>>>>>>>>>>
<<<<<<<<<<<<<<<<<<<<<<<<< Pseudopotential information >>>>>>>>>>>>>>>>>>>>>>>>>>
File: /work/e89/e89/arihant/pseudo/Li.usp [ 2001 points up to Gmax=  52.9 (1/bohr)]
  Atomic number:  3;  ionic charge:  3.000000
    Shell 1: l = 0; rc = 1.19 bohr
    Shell 2: l = 0; rc = 1.25 bohr
File: /work/e89/e89/arihant/pseudo/C.usp [ 2001 points up to Gmax=  52.9 (1/bohr)]
  Atomic number:  6;  ionic charge:  4.000000
    Shell 1: l = 0; rc = 1.19 bohr
  Core charge supplied for Nonlinear Core Corrections
<<<<<<<<<<<<<<<<<<<<<<<<<<<<<<<<<<<<<<<<>>>>>>>>>>>>>>>>>>>>>>>>>>>>>>>>>>>>>>>>

-------------------------- Atom counting information ---------------------------
Symbol    Natoms    Nngwfs    Nprojs
  Li        64       320       128
  C        512      2048       512
.......   ......    ......    ......
Totals:    576      2368       640
--------------------------------------------------------------------------------

=============================== PSINC grid sizes ===============================
                      Simulation cell:  143 x  91 x 416
                              FFT-box:  117 x  91 x 117
                                  PPD:   11 x   7 x   1
Grid space d1=  0.451541543008a0 (KE cutoff=  37.25706Eh =1013.81618eV)
Grid space d2=  0.409667706512a0 (KE cutoff=  45.26271Eh =1231.66098eV)
Grid space d3=  0.454388192297a0 (KE cutoff=  36.79171Eh =1001.15326eV)
================================================================================
  
WARNING in cell_grid_distribute:
Average of less than one 23-slab per proc, so workload cannot be
equally balanced between procs.

********************* Fourier parallelisation information **********************
       Coarse grid (whole simulation cell) dimensions:    143    91   416
          Real-space ('12') slabs/proc (min max mean):      3     4     3
         Recip-space ('23') slabs/proc (min max mean):      0     1     0
********************************************************************************

********************* Fourier parallelisation information **********************
       Double grid (whole simulation cell) dimensions:    286   182   832
          Real-space ('12') slabs/proc (min max mean):      6     7     6
         Recip-space ('23') slabs/proc (min max mean):      1     2     1
********************************************************************************

********************* Fourier parallelisation information **********************
         Fine grid (whole simulation cell) dimensions:    288   184   832
          Real-space ('12') slabs/proc (min max mean):      6     7     6
         Recip-space ('23') slabs/proc (min max mean):      1     2     1
         Grid scale modified to satisfy multigrid solver grid constraints
         Grid scale values after modifification:         2.01  2.02  2.00
********************************************************************************
ONETEP fine grid is 288 x 184 x 832 gridpoints, 64.5704 x 37.2798 x 189.0255 bohr.
FD multigrid is     288 x 184 x 832 gridpoints, 64.5704 x 37.2798 x 189.0255 bohr.


Atom SCF Calculation for Li : Z (AE atom) =   3 : Z (PS atom) =   3
Config String:
Orbitals (num,occ):  3     2.00 1.00 0.00
Orbitals   (num,l):  3        0    0    1
Real-space Grid (nr,dr,rmax): 1343    0.0059612519    8.0000000000
Spherical Bessel Basis (nsws,lmax,cutoff):   37    1  220.4959463253
Confining potential (l,width,scale):  0    3.0000000000  100.0000000000
Confining potential (l,width,scale):  1    3.0000000000  100.0000000000
  1         -3.7050169094   -5.2301177776    2.5388568852   -0.9989538802
  2         -6.0510920273   -4.2679357854    3.2724001845   -1.3422946715
  3         -6.7975021434   -3.8722499620    3.6648237887   -1.5325279919
  4         -7.0147472228   -3.7673066376    3.7864613280   -1.5966989055
  5         -7.0774132854   -3.7446783348    3.8157063634   -1.6161454686
  6         -7.0951992563   -3.7420177453    3.8204515040   -1.6217593843
  7         -7.1001226024   -3.7430426481    3.8200527077   -1.6233132433
  8         -7.1014239576   -3.7441529610    3.8191274553   -1.6237164860
  9         -7.1017352306   -3.7448434699    3.8184905098   -1.6238077213
 10         -7.1017916056   -3.7452114113    3.8181373932   -1.6238209669
 11         -7.1017908912   -3.7453946820    3.8179578223   -1.6238181917
 12         -7.1017822190   -3.7454828903    3.8178702968   -1.6238141227
 13         -7.1017768840   -3.7455162316    3.8178369316   -1.6238119017
 14         -7.1017732849   -3.7455353767    3.8178176959   -1.6238104459
 15         -7.1017709700   -3.7455463461    3.8178066371   -1.6238095253
 16         -7.1017695244   -3.7455526225    3.8178002910   -1.6238089565
 17         -7.1017686390   -3.7455562110    3.8177966534   -1.6238086105
 18         -7.1017681040   -3.7455582619    3.8177945697   -1.6238084022
 19         -7.1017677838   -3.7455594341    3.8177933764   -1.6238082778
 20         -7.1017675934   -3.7455601042    3.8177926929   -1.6238082039
 21         -7.1017674808   -3.7455604874    3.8177923014   -1.6238081602
 22         -7.1017674145   -3.7455607066    3.8177920771   -1.6238081344
Atom SCF converged after  22 iterations to a total energy of     -7.10176741

Atom SCF Calculation for C  : Z (AE atom) =   6 : Z (PS atom) =   4
Config String:
Orbitals (num,occ):  2     2.00 2.00
Orbitals   (num,l):  2        0    1
Real-space Grid (nr,dr,rmax): 1343    0.0059612519    8.0000000000
Spherical Bessel Basis (nsws,lmax,cutoff):   37    1  220.4959463253
Confining potential (l,width,scale):  0    3.0000000000  100.0000000000
Confining potential (l,width,scale):  1    3.0000000000  100.0000000000
  1         -5.8177092822   -1.2555419264    4.5135233515   -1.7471920893
  2         -5.6032261188   -1.3440047989    4.4246587726   -1.7090653419
  3         -5.5936068668   -1.3561735374    4.4140765627   -1.7034094417
  4         -5.5958505747   -1.3587284552    4.4121342699   -1.7022848669
  5         -5.5969687665   -1.3601698222    4.4109982405   -1.7017057890
  6         -5.5975400979   -1.3609792837    4.4103423276   -1.7013975981
  7         -5.5978435204   -1.3614297943    4.4099696476   -1.7012314972
  8         -5.5980096069   -1.3616786122    4.4097605138   -1.7011416075
  9         -5.5981021113   -1.3618152853    4.4096441572   -1.7010929151
 10         -5.5981539939   -1.3618900852    4.4095797860   -1.7010665406
 11         -5.5981831160   -1.3619309228    4.4095443105   -1.7010522599
 12         -5.5981994243   -1.3619531807    4.4095248124   -1.7010445305
 13         -5.5982085235   -1.3619652972    4.4095141175   -1.7010403487
 14         -5.5982135796   -1.3619718867    4.4095082606   -1.7010380870
 15         -5.5982163780   -1.3619754676    4.4095050573   -1.7010368642
 16         -5.5982179208   -1.3619774123    4.4095033073   -1.7010362032
 17         -5.5982187685   -1.3619784678    4.4095023522   -1.7010358460
 18         -5.5982192328   -1.3619790404    4.4095018314   -1.7010356530
 19         -5.5982194864   -1.3619793509    4.4095015476   -1.7010355488
 20         -5.5982196245   -1.3619795192    4.4095013931   -1.7010354925
 21         -5.5982196995   -1.3619796104    4.4095013090   -1.7010354621
Atom SCF converged after  21 iterations to a total energy of     -5.59821970

BC: Task: GEOMETRYOPTIMIZATION
BC: +++++++++++++++ Summary of boundary conditions ++++++++++++++
BC: |       Component       |     Keyword     |   Periodicity   |
BC: |                       |                 |     X  Y  Z [1] |
BC: |-----------------------------------------------------------|
BC: | Ion-ion               | ion_ion_bc [2]  |     P  P  P     |
BC: | Local pseudopotential | pspot_bc [3]    |     P  P  P     |
BC: | Multigrid solver      | multigrid_bc    |     P  P  P     |
BC: | Smeared ions          | smeared_ion_bc  |     P  P  P     |
BC: | Van der Waals         | vdw_bc          |     P  P  P     |
BC: +++++++++++++++++++++++++++++++++++++++++++++++++++++++++++++
BC: P: Periodic, O: Open.
BC: [1] Not strictly along X, Y, Z but rather along lattice vectors A1, A2, A3.
BC: [2] Also affected by: pbc_correction_cutoff, cutoff_coulomb_type,
BC:     is_smeared_ion_rep, is_implicit_solvent, openbc_ion_ion.
BC: [3] Also affected by: is_smeared_ion_rep, is_implicit_solvent, openbc_pspot.

================================================================================
<<<<<<<<<<<<<<<< Resuming previous ONETEP Geometry Optimisation >>>>>>>>>>>>>>>>
================================================================================

 Geometry Optimisation: output file is "graphite.geom"
 
 Reading continuation file "graphite.continuation" ...done
 Geometry Optimisation: read_tightbox_ngwfs parameter over-ridden to TRUE
 Geometry Optimisation: read_hamiltonian parameter over-ridden to T
 
                           -------------------------------
                                     Cell Contents
                           -------------------------------
 
            xxxxxxxxxxxxxxxxxxxxxxxxxxxxxxxxxxxxxxxxxxxxxxxxxxxxxxxxxxxx
            x  Element    Atom      Absolute co-ordinates of atoms     x
            x            Number        x           y           z       x
            x----------------------------------------------------------x
            x    Li        1        0.035095   37.133646   16.426359   x
            x    Li        2        0.035313   27.810775   16.427253   x
            x    Li        3        0.034970   18.485979   16.425993   x
            x    Li        4        0.034861    9.170302   16.424189   x
            x    Li        5        8.133428   32.464472   16.426098   x
            x    Li        6        8.134282   23.152237   16.428497   x
            x    Li        7        8.139397   13.829627   16.419090   x
            x    Li        8        8.136646    4.515026   16.424043   x
            x    Li        9       16.235825    9.176280   16.405255   x
            x    Li       10       16.236036   18.477576   16.415170   x
            x    Li       11       16.236178   27.810712   16.426637   x
            x    Li       12       16.235967   37.137333   16.426134   x
            x    Li       13       24.332581   32.464028   16.422599   x
            x    Li       14       24.331747   23.152369   16.424835   x
            x    Li       15       24.324633   13.830429   16.416848   x
            x    Li       16       24.327825    4.514480   16.422179   x
            x    Li       17       32.408664   37.132260   16.425147   x
            x    Li       18       32.408582   27.810648   16.422939   x
            x    Li       19       32.409396   18.487339   16.424967   x
            x    Li       20       32.409465    9.170299   16.426057   x
            x    Li       21       40.461067   32.461354   16.416264   x
            x    Li       22       40.456075   23.156228   16.422245   x
            x    Li       23       40.452082   13.832712   16.423893   x
            x    Li       24       40.452601    4.510942   16.425658   x
            x    Li       25       48.477939   37.123961   16.412735   x
            x    Li       26       48.477835   27.816218   16.402697   x
            x    Li       27       48.477963   18.490690   16.423662   x
            x    Li       28       48.477964    9.170225   16.424395   x
            x    Li       29       56.515909   32.462094   16.415379   x
            x    Li       30       56.519762   23.155585   16.421504   x
            x    Li       31       56.524929   13.832135   16.421900   x
            x    Li       32       56.524147    4.511465   16.423246   x
            x    C        33       18.933579    9.202499   12.879775   x
            x    C        34       13.512427    9.202395   12.883544   x
            x    C        35       14.870790   11.545372   12.879487   x
            x    C        36       17.575092   11.545467   12.881952   x
            x    C        37       51.213871   27.842271   12.881012   x
            x    C        38       45.796173   27.842204   12.883285   x
            x    C        39       47.153739   30.185397   12.879654   x
            x    C        40       49.856803   30.185093   12.882707   x
            x    C        41       14.870097    6.858141   12.881125   x
            x    C        42       17.575752    6.858208   12.883557   x
            x    C        43       21.589424   13.863405   12.894579   x
            x    C        44       18.918169   13.863536   12.890191   x
            x    C        45       13.527711   13.863588   12.889695   x
            x    C        46       14.870906   16.181143   12.892617   x
            x    C        47       17.575278   16.181119   12.895201   x
            x    C        48       47.152982   25.497867   12.881257   x
            x    C        49       49.857281   25.498411   12.883985   x
            x    C        50       53.867835   32.503361   12.892827   x
            x    C        51       51.197537   32.503662   12.890454   x
            x    C        52       45.812655   32.503486   12.890257   x
            x    C        53       47.153638   34.820951   12.892797   x
            x    C        54       49.856833   34.821480   12.895526   x
            x    C        55       14.871338    2.222266   12.890129   x
            x    C        56       17.574447    2.222510   12.892766   x
            x    C        57       22.945229    2.199624   12.900418   x
            x    C        58        9.499798    2.199102   12.903590   x
            x    C        59       63.294299    2.225164   12.896794   x
            x    C        60        6.796486    2.199673   12.902540   x
            x    C        61       31.016636    2.224646   12.898040   x
            x    C        62        1.426357    2.224718   12.899861   x
            x    C        63       25.648255    2.200039   12.903192   x
            x    C        64       33.718792    2.224702   12.899886   x
            x    C        65       39.086263    2.199608   12.904511   x
            x    C        66       55.222748    2.199748   12.898808   x
            x    C        67       57.925180    2.200619   12.903482   x
            x    C        68       47.154394    2.223879   12.887063   x
            x    C        69       41.788401    2.199397   12.904273   x
            x    C        70       49.855877    2.223751   12.889389   x
            x    C        71       18.918160    4.539683   12.885872   x
            x    C        72       13.527584    4.539504   12.885436   x
            x    C        73       10.855957    4.541302   12.892063   x
            x    C        74       27.004918    4.542915   12.896653   x
            x    C        75        5.439570    4.542656   12.901854   x
            x    C        76       21.589381    4.541681   12.895447   x
            x    C        77       59.281084    4.542765   12.899385   x
            x    C        78        2.768470    4.542703   12.898796   x
            x    C        79       35.060174    4.542227   12.901218   x
            x    C        80       61.951883    4.542717   12.898887   x
            x    C        81       29.675468    4.542678   12.899988   x
            x    C        82       43.143771    4.541660   12.899180   x
            x    C        83       51.196452    4.541409   12.894075   x
            x    C        84       37.730415    4.542175   12.906125   x
            x    C        85       53.866613    4.542208   12.899494   x
            x    C        86       45.813465    4.541048   12.895597   x
            x    C        87       22.946868    6.883262   12.888648   x
            x    C        88       63.294259    6.860361   12.901559   x
            x    C        89        6.796295    6.884120   12.893221   x
            x    C        90       31.015835    6.860922   12.904871   x
            x    C        91       39.086419    6.883551   12.898880   x
            x    C        92       57.924861    6.883848   12.897683   x
            x    C        93        1.427430    6.861078   12.904683   x
            x    C        94        9.498372    6.883077   12.891740   x
            x    C        95       25.648642    6.884358   12.894083   x
            x    C        96       33.718928    6.860027   12.906878   x
            x    C        97       55.223316    6.884114   12.895145   x
            x    C        98       47.153483    6.859173   12.901685   x
            x    C        99       41.787650    6.883262   12.901015   x
            x    C       100       49.856613    6.859825   12.903679   x
            x    C       101       51.211943    9.202547   12.899890   x
            x    C       102       59.266205    9.202252   12.895702   x
            x    C       103        2.783362    9.202944   12.898278   x
            x    C       104       26.990237    9.202139   12.893973   x
            x    C       105       35.075112    9.202717   12.899657   x
            x    C       106       43.127607    9.201613   12.900018   x
            x    C       107       53.882108    9.202034   12.898064   x
            x    C       108       61.937509    9.203176   12.899877   x
            x    C       109        5.454162    9.202057   12.895132   x
            x    C       110       21.605593    9.201703   12.887044   x
            x    C       111       29.660372    9.202859   12.903340   x
            x    C       112       37.745697    9.201810   12.899504   x
            x    C       113       45.797590    9.202290   12.903734   x
            x    C       114       10.840223    9.201465   12.886958   x
            x    C       115       47.154003   11.544215   12.898818   x
            x    C       116       55.222536   11.520413   12.899827   x
            x    C       117       63.295110   11.544725   12.894671   x
            x    C       118       31.016396   11.543573   12.897225   x
            x    C       119       39.085626   11.520460   12.902464   x
            x    C       120       49.855804   11.544006   12.900746   x
            x    C       121       57.925526   11.521099   12.901537   x
            x    C       122        1.426889   11.543715   12.897206   x
            x    C       123       33.718131   11.544225   12.899811   x
            x    C       124       41.788133   11.520259   12.905349   x
            x    C       125        6.795938   11.520009   12.895726   x
            x    C       126       22.946094   11.520641   12.892396   x
            x    C       127       25.649039   11.520144   12.896266   x
            x    C       128        9.499176   11.520355   12.895630   x
            x    C       129       45.813042   13.861734   12.902319   x
            x    C       130       43.143373   13.863056   12.900703   x
            x    C       131       51.196468   13.861940   12.900664   x
            x    C       132       59.281342   13.863376   12.897305   x
            x    C       133       35.059850   13.861833   12.899439   x
            x    C       134       53.866558   13.863410   12.901022   x
            x    C       135       61.952273   13.862185   12.897674   x
            x    C       136       29.675259   13.861521   12.896417   x
            x    C       137       37.730071   13.863022   12.903581   x
            x    C       138        2.768892   13.861511   12.895433   x
            x    C       139       27.004637   13.862860   12.891121   x
            x    C       140        5.440058   13.862665   12.896164   x
            x    C       141       10.856149   13.863337   12.890872   x
            x    C       142       47.153455   16.179155   12.905064   x
            x    C       143       55.223425   16.204609   12.895010   x
            x    C       144       41.787270   16.204087   12.900691   x
            x    C       145       49.856375   16.179766   12.907253   x
            x    C       146       39.086527   16.204222   12.898472   x
            x    C       147       63.294091   16.180105   12.902089   x
            x    C       148       31.015702   16.180170   12.902398   x
            x    C       149       57.924602   16.204259   12.897513   x
            x    C       150       33.719088   16.179931   12.905233   x
            x    C       151        6.797712   16.204290   12.890508   x
            x    C       152        1.427521   16.180205   12.903923   x
            x    C       153       25.647372   16.204571   12.890941   x
            x    C       154       22.945703   16.204775   12.888301   x
            x    C       155        9.499643   16.204682   12.891684   x
            x    C       156       51.212275   18.521446   12.899793   x
            x    C       157       45.797180   18.521271   12.902894   x
            x    C       158       43.127374   18.521389   12.900095   x
            x    C       159       53.882250   18.521565   12.898769   x
            x    C       160       35.075526   18.522953   12.899327   x
            x    C       161       59.266084   18.522065   12.898175   x
            x    C       162       37.745808   18.521913   12.901109   x
            x    C       163       61.937142   18.523146   12.902100   x
            x    C       164       29.659632   18.523027   12.902569   x
            x    C       165        2.784169   18.523105   12.899255   x
            x    C       166       26.988946   18.522238   12.895169   x
            x    C       167        5.455594   18.522107   12.896875   x
            x    C       168       10.842652   18.522104   12.891740   x
            x    C       169       18.932074   18.523365   12.888487   x
            x    C       170       21.603255   18.522446   12.891193   x
            x    C       171       13.513983   18.523195   12.892784   x
            x    C       172       47.154123   20.862048   12.890480   x
            x    C       173       49.855918   20.861879   12.893078   x
            x    C       174       55.223500   20.838979   12.900007   x
            x    C       175       41.787251   20.839154   12.904472   x
            x    C       176       31.016520   20.864328   12.897494   x
            x    C       177       39.085033   20.840164   12.903828   x
            x    C       178       63.294846   20.865054   12.896914   x
            x    C       179       33.718444   20.864911   12.899358   x
            x    C       180       57.926182   20.840503   12.903773   x
            x    C       181        1.426801   20.864291   12.900011   x
            x    C       182        6.797781   20.839786   12.903345   x
            x    C       183       22.944336   20.840339   12.899288   x
            x    C       184       25.647364   20.839997   12.903010   x
            x    C       185       14.871780   20.863691   12.886663   x
            x    C       186        9.501045   20.839877   12.903933   x
            x    C       187       17.574276   20.863872   12.888417   x
            x    C       188       51.197351   23.179489   12.885991   x
            x    C       189       45.812592   23.179290   12.886405   x
            x    C       190       43.142572   23.181372   12.892326   x
            x    C       191       59.282064   23.182832   12.898638   x
            x    C       192       37.729402   23.182741   12.903165   x
            x    C       193       53.867773   23.181547   12.894698   x
            x    C       194       27.004175   23.182769   12.898299   x
            x    C       195       35.059562   23.182584   12.899126   x
            x    C       196        2.768940   23.182191   12.900316   x
            x    C       197       29.675224   23.182387   12.898929   x
            x    C       198       61.952532   23.182625   12.899354   x
            x    C       199       10.857443   23.181826   12.899943   x
            x    C       200       18.917074   23.181210   12.893226   x
            x    C       201        5.440489   23.182282   12.905089   x
            x    C       202       21.588179   23.182128   12.901173   x
            x    C       203       13.528919   23.181123   12.894700   x
            x    C       204       55.225278   25.523495   12.888895   x
            x    C       205       31.016285   25.500723   12.902178   x
            x    C       206       39.084802   25.523837   12.894882   x
            x    C       207       63.293955   25.500474   12.903628   x
            x    C       208        6.797749   25.523901   12.898650   x
            x    C       209       25.647094   25.524354   12.897645   x
            x    C       210       33.719286   25.500506   12.903994   x
            x    C       211       41.785897   25.523210   12.892683   x
            x    C       212       57.926605   25.523829   12.895533   x
            x    C       213        1.427013   25.500548   12.907007   x
            x    C       214       22.944855   25.523581   12.896249   x
            x    C       215       14.870913   25.499504   12.901129   x
            x    C       216        9.500288   25.523397   12.901389   x
            x    C       217       17.575098   25.499490   12.902593   x
            x    C       218       18.931680   27.842786   12.898902   x
            x    C       219       26.989443   27.842161   12.896131   x
            x    C       220       35.075039   27.842850   12.896754   x
            x    C       221       59.267222   27.842102   12.894376   x
            x    C       222        2.783247   27.842861   12.900846   x
            x    C       223       10.842570   27.841535   12.899378   x
            x    C       224       21.603039   27.841921   12.898009   x
            x    C       225       29.660395   27.842961   12.901421   x
            x    C       226       37.744778   27.841760   12.896235   x
            x    C       227       53.884580   27.841404   12.887945   x
            x    C       228       61.937555   27.842984   12.901664   x
            x    C       229        5.454781   27.841822   12.899389   x
            x    C       230       13.514116   27.842434   12.903641   x
            x    C       231       43.125730   27.841334   12.888198   x
            x    C       232       14.871455   30.184236   12.898166   x
            x    C       233       22.944223   30.160723   12.900021   x
            x    C       234       31.017082   30.183995   12.895450   x
            x    C       235       63.294348   30.184106   12.896415   x
            x    C       236        6.797039   30.159986   12.901790   x
            x    C       237       17.574325   30.184671   12.899686   x
            x    C       238       25.647839   30.160385   12.900641   x
            x    C       239       33.718769   30.184040   12.896882   x
            x    C       240        1.425924   30.183911   12.900294   x
            x    C       241        9.500878   30.160074   12.904809   x
            x    C       242       39.084461   30.159781   12.896517   x
            x    C       243       55.224405   30.159929   12.891580   x
            x    C       244       57.927054   30.160569   12.896900   x
            x    C       245       41.786743   30.159913   12.895734   x
            x    C       246       13.528473   32.501954   12.900730   x
            x    C       247       10.857070   32.502894   12.900332   x
            x    C       248       18.917098   32.502353   12.899604   x
            x    C       249       27.004257   32.503340   12.895549   x
            x    C       250        2.768505   32.501868   12.898766   x
            x    C       251       21.588207   32.503462   12.902110   x
            x    C       252       29.675367   32.501986   12.897481   x
            x    C       253       61.952259   32.501625   12.896029   x
            x    C       254        5.440173   32.502981   12.902212   x
            x    C       255       35.059931   32.501488   12.896107   x
            x    C       256       59.281832   32.502744   12.892423   x
            x    C       257       37.729809   32.502193   12.897379   x
            x    C       258       43.142657   32.502942   12.890413   x
            x    C       259       14.870785   34.819589   12.904104   x
            x    C       260       22.945141   34.844057   12.895342   x
            x    C       261        9.499887   34.843616   12.899742   x
            x    C       262       17.574775   34.819711   12.906047   x
            x    C       263        6.798074   34.844097   12.897153   x
            x    C       264       31.016013   34.820445   12.902781   x
            x    C       265       63.293745   34.819725   12.901296   x
            x    C       266       25.646761   34.844584   12.896719   x
            x    C       267        1.427069   34.820397   12.905374   x
            x    C       268       39.086150   34.843429   12.891529   x
            x    C       269       33.719437   34.819673   12.903893   x
            x    C       270       57.925307   34.843900   12.891318   x
            x    C       271       55.224115   34.844908   12.887623   x
            x    C       272       41.787002   34.844171   12.891914   x
            x    C       273       18.932105   37.161453   12.898757   x
            x    C       274       13.513513   37.161271   12.902576   x
            x    C       275       10.842037   37.160925   12.898461   x
            x    C       276       21.603406   37.161409   12.898213   x
            x    C       277        2.783682   37.162688   12.900764   x
            x    C       278       26.989077   37.161859   12.898217   x
            x    C       279        5.455095   37.161407   12.900056   x
            x    C       280       29.659803   37.162888   12.903696   x
            x    C       281       61.936744   37.163043   12.900919   x
            x    C       282       35.075985   37.162693   12.898134   x
            x    C       283       59.265766   37.162090   12.894903   x
            x    C       284       37.746302   37.161359   12.897786   x
            x    C       285       43.127854   37.161504   12.892420   x
            x    C       286       51.212387   37.163151   12.889241   x
            x    C       287       53.882315   37.161993   12.891635   x
            x    C       288       45.797625   37.162910   12.892483   x
            x    Li      289        0.048549   37.109626    9.369870   x
            x    Li      290        0.048754   27.788761    9.370508   x
            x    Li      291        0.048459   18.465812    9.369533   x
            x    Li      292        0.048392    9.147096    9.368092   x
            x    Li      293        8.136558   32.446538    9.370128   x
            x    Li      294        8.136991   23.128903    9.371417   x
            x    Li      295        8.136771   13.809967    9.361227   x
            x    Li      296        8.137329    4.486468    9.366039   x
            x    Li      297       16.226634    9.145220    9.350349   x
            x    Li      298       16.226436   18.465891    9.357854   x
            x    Li      299       16.226172   27.788764    9.369747   x
            x    Li      300       16.226496   37.110799    9.367749   x
            x    Li      301       24.313168   32.446715    9.367018   x
            x    Li      302       24.313118   23.128513    9.368112   x
            x    Li      303       24.312990   13.810163    9.359400   x
            x    Li      304       24.312334    4.486493    9.364376   x
            x    Li      305       32.387993   37.110299    9.369482   x
            x    Li      306       32.387719   27.788528    9.367626   x
            x    Li      307       32.387707   18.465339    9.369577   x
            x    Li      308       32.388045    9.146863    9.370616   x
            x    Li      309       40.441030   32.446196    9.361023   x
            x    Li      310       40.441333   23.129378    9.366062   x
            x    Li      311       40.440556   13.809991    9.369914   x
            x    Li      312       40.440744    4.485999    9.370919   x
            x    Li      313       48.482624   37.110663    9.357551   x
            x    Li      314       48.482765   27.786943    9.350158   x
            x    Li      315       48.482735   18.466405    9.367493   x
            x    Li      316       48.482204    9.146761    9.369468   x
            x    Li      317       56.539508   32.446381    9.359182   x
            x    Li      318       56.538947   23.129295    9.364745   x
            x    Li      319       56.539834   13.810305    9.366792   x
            x    Li      320       56.539682    4.485997    9.367418   x
            x    C       321       18.918826    9.195264    5.845644   x
            x    C       322       13.523122    9.195117    5.848515   x
            x    C       323       14.869306   11.533015    5.853355   x
            x    C       324       17.572543   11.533145    5.855005   x
            x    C       325       51.202969   27.834994    5.846858   x
            x    C       326       45.808206   27.834937    5.843549   x
            x    C       327       47.154289   30.172839    5.851134   x
            x    C       328       49.857192   30.172752    5.856116   x
            x    C       329       14.869087    6.856830    5.838284   x
            x    C       330       17.572883    6.856811    5.839821   x
            x    C       331       21.598779   13.856508    5.853167   x
            x    C       332       18.911209   13.857253    5.870062   x
            x    C       333       13.530701   13.857187    5.870914   x
            x    C       334       14.869789   16.180354    5.844522   x
            x    C       335       17.572113   16.180345    5.846438   x
            x    C       336       47.153915   25.496565    5.835838   x
            x    C       337       49.857345   25.496745    5.840783   x
            x    C       338       53.882527   32.496381    5.846384   x
            x    C       339       51.195252   32.497033    5.868575   x
            x    C       340       45.816134   32.496955    5.868154   x
            x    C       341       47.154780   34.820056    5.843221   x
            x    C       342       49.856800   34.820304    5.848534   x
            x    C       343       14.870035    2.209260    5.851915   x
            x    C       344       17.571626    2.209378    5.853760   x
            x    C       345       22.942709    2.197929    5.848469   x
            x    C       346        9.498898    2.197646    5.850936   x
            x    C       347       63.296985    2.212596    5.857800   x
            x    C       348        6.797551    2.198469    5.849813   x
            x    C       349       31.013626    2.212514    5.860623   x
            x    C       350        1.427836    2.212470    5.863655   x
            x    C       351       25.643978    2.198751    5.849917   x
            x    C       352       33.714907    2.212290    5.859844   x
            x    C       353       39.084852    2.198940    5.851180   x
            x    C       354       55.225801    2.199071    5.843867   x
            x    C       355       57.926762    2.199424    5.852792   x
            x    C       356       47.155072    2.211814    5.847341   x
            x    C       357       41.785824    2.198765    5.850078   x
            x    C       358       49.856134    2.211756    5.851920   x
            x    C       359       18.911115    4.532570    5.862877   x
            x    C       360       13.530749    4.532527    5.863849   x
            x    C       361       10.842995    4.534012    5.849631   x
            x    C       362       26.989102    4.535664    5.850358   x
            x    C       363        5.452469    4.535346    5.855252   x
            x    C       364       21.598759    4.534238    5.852508   x
            x    C       365       59.271254    4.535915    5.858421   x
            x    C       366        2.765617    4.536099    5.873419   x
            x    C       367       35.052887    4.535781    5.871490   x
            x    C       368       61.958619    4.536172    5.873422   x
            x    C       369       29.675937    4.536239    5.873451   x
            x    C       370       43.130078    4.534977    5.852475   x
            x    C       371       51.194126    4.534805    5.865353   x
            x    C       372       37.740118    4.535420    5.858802   x
            x    C       373       53.881035    4.535302    5.849702   x
            x    C       374       45.816906    4.534673    5.866488   x
            x    C       375       22.944157    6.870694    5.853514   x
            x    C       376       63.297113    6.859486    5.849018   x
            x    C       377        6.796891    6.871377    5.855304   x
            x    C       378       31.013272    6.859799    5.853201   x
            x    C       379       39.084759    6.871448    5.860427   x
            x    C       380       57.926590    6.871833    5.862423   x
            x    C       381        1.428247    6.859779    5.854872   x
            x    C       382        9.497577    6.870432    5.856137   x
            x    C       383       25.644732    6.871701    5.855265   x
            x    C       384       33.714714    6.859163    5.852717   x
            x    C       385       55.225822    6.871634    5.856022   x
            x    C       386       47.154566    6.858246    5.847659   x
            x    C       387       41.785456    6.871119    5.861965   x
            x    C       388       49.856455    6.858439    5.852264   x
            x    C       389       51.200880    9.195599    5.857031   x
            x    C       390       59.264656    9.195735    5.870421   x
            x    C       391        2.772684    9.195840    5.857015   x
            x    C       392       26.982290    9.195388    5.867066   x
            x    C       393       35.059450    9.195761    5.852440   x
            x    C       394       43.122733    9.195080    5.870989   x
            x    C       395       53.888156    9.195504    5.871721   x
            x    C       396       61.952147    9.196150    5.852679   x
            x    C       397        5.459302    9.195204    5.870802   x
            x    C       398       21.606836    9.194963    5.868014   x
            x    C       399       29.668851    9.195886    5.858819   x
            x    C       400       37.746814    9.195338    5.872011   x
            x    C       401       45.809828    9.195435    5.854744   x
            x    C       402       10.835090    9.194681    5.867220   x
            x    C       403       47.154728   11.532098    5.858770   x
            x    C       404       55.225493   11.519477    5.847423   x
            x    C       405       63.297662   11.532132    5.856131   x
            x    C       406       31.013397   11.531482    5.860035   x
            x    C       407       39.084360   11.519221    5.851055   x
            x    C       408       49.856037   11.531999    5.863319   x
            x    C       409       57.926977   11.519694    5.853059   x
            x    C       410        1.428186   11.531502    5.861543   x
            x    C       411       33.714208   11.531780    5.860110   x
            x    C       412       41.785673   11.519149    5.853278   x
            x    C       413        6.796882   11.518755    5.844687   x
            x    C       414       22.943715   11.519446    5.845125   x
            x    C       415       25.644900   11.518984    5.844384   x
            x    C       416        9.498150   11.519145    5.848059   x
            x    C       417       45.816619   13.855313    5.872789   x
            x    C       418       43.129813   13.855820    5.854368   x
            x    C       419       51.194023   13.855384    5.871684   x
            x    C       420       59.271379   13.856213    5.856772   x
            x    C       421       35.052579   13.855133    5.870335   x
            x    C       422       53.880901   13.856153    5.851797   x
            x    C       423       61.958888   13.855502    5.872161   x
            x    C       424       29.675661   13.854953    5.870315   x
            x    C       425       37.739836   13.855804    5.857137   x
            x    C       426        2.766076   13.854905    5.870322   x
            x    C       427       26.988838   13.855839    5.845136   x
            x    C       428        5.452956   13.855599    5.850391   x
            x    C       429       10.843155   13.856317    5.850379   x
            x    C       430       47.154572   16.178063    5.849960   x
            x    C       431       55.226001   16.191876    5.855117   x
            x    C       432       41.785125   16.191515    5.860605   x
            x    C       433       49.856276   16.178277    5.854447   x
            x    C       434       39.084793   16.191666    5.859543   x
            x    C       435       63.297049   16.179102    5.849186   x
            x    C       436       31.012961   16.178910    5.851339   x
            x    C       437       57.926401   16.191910    5.861762   x
            x    C       438       33.714792   16.178844    5.851704   x
            x    C       439        6.798380   16.191899    5.852133   x
            x    C       440        1.428631   16.178895    5.853910   x
            x    C       441       25.643473   16.192172    5.852037   x
            x    C       442       22.942896   16.192626    5.851836   x
            x    C       443        9.499013   16.192434    5.854552   x
            x    C       444       51.201221   18.514106    5.854457   x
            x    C       445       45.809372   18.513962    5.851864   x
            x    C       446       43.122477   18.514374    5.868426   x
            x    C       447       53.888298   18.514616    5.869759   x
            x    C       448       35.059867   18.515765    5.852629   x
            x    C       449       59.264463   18.515213    5.872185   x
            x    C       450       37.746943   18.514998    5.873100   x
            x    C       451       61.951677   18.515975    5.854558   x
            x    C       452       29.668135   18.515932    5.858728   x
            x    C       453        2.773522   18.515866    5.858044   x
            x    C       454       26.980877   18.515701    5.868259   x
            x    C       455        5.460908   18.515471    5.872237   x
            x    C       456       10.837599   18.515638    5.866588   x
            x    C       457       18.917232   18.516408    5.845868   x
            x    C       458       21.604379   18.515841    5.867053   x
            x    C       459       13.524722   18.516392    5.849215   x
            x    C       460       47.154796   20.849186    5.850575   x
            x    C       461       49.856106   20.849188    5.855738   x
            x    C       462       55.226649   20.837635    5.845519   x
            x    C       463       41.784590   20.837489    5.849968   x
            x    C       464       31.013264   20.852228    5.861398   x
            x    C       465       39.083545   20.838520    5.851125   x
            x    C       466       63.297285   20.852565    5.858375   x
            x    C       467       33.714548   20.852396    5.860614   x
            x    C       468       57.927838   20.838867    5.853999   x
            x    C       469        1.428241   20.852145    5.864390   x
            x    C       470        6.798811   20.838836    5.851204   x
            x    C       471       22.941773   20.839172    5.848953   x
            x    C       472       25.642961   20.839046    5.850295   x
            x    C       473       14.870244   20.851734    5.850768   x
            x    C       474        9.500016   20.838879    5.852872   x
            x    C       475       17.571597   20.851754    5.852056   x
            x    C       476       51.195085   23.172428    5.861425   x
            x    C       477       45.815912   23.172377    5.860957   x
            x    C       478       43.128523   23.173889    5.846296   x
            x    C       479       59.272623   23.175549    5.857035   x
            x    C       480       37.738829   23.175374    5.856357   x
            x    C       481       53.882493   23.174081    5.845972   x
            x    C       482       26.987910   23.175697    5.852818   x
            x    C       483       35.052169   23.175980    5.870781   x
            x    C       484        2.766423   23.175711    5.875020   x
            x    C       485       29.675251   23.175997    5.873986   x
            x    C       486       61.959399   23.176105    5.873841   x
            x    C       487       10.844564   23.174974    5.856910   x
            x    C       488       18.910096   23.174723    5.868683   x
            x    C       489        5.453714   23.175307    5.858515   x
            x    C       490       21.597186   23.175225    5.857960   x
            x    C       491       13.531707   23.174637    5.871075   x
            x    C       492       55.228192   25.510663    5.849282   x
            x    C       493       31.013461   25.499506    5.851854   x
            x    C       494       39.082938   25.511357    5.854994   x
            x    C       495       63.297129   25.499485    5.850182   x
            x    C       496        6.798665   25.511476    5.859639   x
            x    C       497       25.642897   25.511888    5.858879   x
            x    C       498       33.714874   25.499533    5.850684   x
            x    C       499       41.783339   25.510449    5.853440   x
            x    C       500       57.928648   25.511408    5.858245   x
            x    C       501        1.428211   25.499276    5.856705   x
            x    C       502       22.941939   25.511426    5.859864   x
            x    C       503       14.869768   25.498260    5.850687   x
            x    C       504        9.499675   25.511113    5.863430   x
            x    C       505       17.571987   25.498328    5.851963   x
            x    C       506       18.916791   27.835528    5.855355   x
            x    C       507       26.981259   27.835651    5.869280   x
            x    C       508       35.059354   27.835737    5.849255   x
            x    C       509       59.265851   27.835265    5.867002   x
            x    C       510        2.772703   27.835747    5.858625   x
            x    C       511       10.837409   27.835045    5.873896   x
            x    C       512       21.604255   27.835375    5.874008   x
            x    C       513       29.668827   27.835906    5.857881   x
            x    C       514       37.745819   27.835169    5.867420   x
            x    C       515       53.890945   27.834797    5.864632   x
            x    C       516       61.952409   27.835783    5.852608   x
            x    C       517        5.460270   27.835335    5.873481   x
            x    C       518       13.524890   27.835270    5.859288   x
            x    C       519       43.120429   27.834611    5.862617   x
            x    C       520       14.869959   30.171806    5.861346   x
            x    C       521       22.941642   30.159490    5.850857   x
            x    C       522       31.013903   30.171760    5.859176   x
            x    C       523       63.297276   30.171552    5.856988   x
            x    C       524        6.798298   30.159114    5.849723   x
            x    C       525       17.571546   30.171985    5.862556   x
            x    C       526       25.643226   30.159447    5.849134   x
            x    C       527       33.714754   30.171515    5.857833   x
            x    C       528        1.427662   30.171598    5.863383   x
            x    C       529        9.499890   30.159132    5.854420   x
            x    C       530       39.082904   30.158814    5.844744   x
            x    C       531       55.227770   30.159156    5.840631   x
            x    C       532       57.928769   30.159028    5.847309   x
            x    C       533       41.783920   30.159078    5.845492   x
            x    C       534       13.531438   32.495118    5.877106   x
            x    C       535       10.844341   32.495712    5.858499   x
            x    C       536       18.910114   32.495267    5.874692   x
            x    C       537       26.988069   32.496177    5.851384   x
            x    C       538        2.766111   32.495081    5.873549   x
            x    C       539       21.597198   32.496019    5.859492   x
            x    C       540       29.675487   32.495294    5.873028   x
            x    C       541       61.959080   32.494827    5.871220   x
            x    C       542        5.453462   32.495787    5.856638   x
            x    C       543       35.052644   32.494779    5.868415   x
            x    C       544       59.272291   32.495656    5.851987   x
            x    C       545       37.739360   32.495555    5.851876   x
            x    C       546       43.128842   32.496195    5.847114   x
            x    C       547       14.869682   34.817975    5.853613   x
            x    C       548       22.942098   34.831624    5.859805   x
            x    C       549        9.499467   34.831358    5.863336   x
            x    C       550       17.571718   34.818015    5.854666   x
            x    C       551        6.798822   34.831642    5.859672   x
            x    C       552       31.013232   34.819106    5.853323   x
            x    C       553       63.296629   34.818651    5.849628   x
            x    C       554       25.642721   34.832018    5.859488   x
            x    C       555        1.428201   34.818943    5.856368   x
            x    C       556       39.084389   34.831692    5.853461   x
            x    C       557       33.715204   34.818569    5.851452   x
            x    C       558       57.927343   34.831837    5.855985   x
            x    C       559       55.226864   34.832659    5.848784   x
            x    C       560       41.784765   34.832240    5.853227   x
            x    C       561       18.917174   37.153923    5.852993   x
            x    C       562       13.524421   37.153841    5.856660   x
            x    C       563       10.837231   37.154214    5.872031   x
            x    C       564       21.604351   37.154489    5.872541   x
            x    C       565        2.773076   37.155715    5.859789   x
            x    C       566       26.981086   37.155147    5.871989   x
            x    C       567        5.460389   37.154836    5.875605   x
            x    C       568       29.668326   37.155854    5.860293   x
            x    C       569       61.951453   37.155885    5.853746   x
            x    C       570       35.060310   37.155627    5.851288   x
            x    C       571       59.264322   37.155626    5.868866   x
            x    C       572       37.747406   37.155266    5.869914   x
            x    C       573       43.122905   37.155280    5.862912   x
            x    C       574       51.201435   37.156250    5.847616   x
            x    C       575       53.888398   37.155720    5.864382   x
            x    C       576       45.809738   37.156032    5.844750   x
            xxxxxxxxxxxxxxxxxxxxxxxxxxxxxxxxxxxxxxxxxxxxxxxxxxxxxxxxxxxx
 

LBFGS: continuation file name is "graphite.continuation"
 LBFGS: Restarting previous  geometry optimization.
 avg_mass=  20867.333643189002
 Enthalpy contributions:
                  total energy=  -3.14137475E+003 Eh
        diagonal pressure term=   0.00000000E+000 Eh
    off-diagonal pressure term=   0.00000000E+000 Eh
 LBFGS: finished iteration   0  with enthalpy= -3.141374754910E+003 Eh
  
 +-----------+-----------------+-----------------+------------+-----+ <-- LBFGS
 | Parameter |      value      |    tolerance    |    units   | OK? | <-- LBFGS
 +-----------+-----------------+-----------------+------------+-----+ <-- LBFGS
 |  dE/ion   |   0.000000E+000 |   1.000000E-006 |         Eh | No  | <-- LBFGS
 |  |F|max   |   1.600393E-003 |   2.000000E-003 |    Eh/Bohr | Yes | <-- LBFGS
 |  |dR|max  |   0.000000E+000 |   5.000000E-003 |       Bohr | No  | <-- LBFGS
 +-----------+-----------------+-----------------+------------+-----+ <-- LBFGS
  

================================================================================
 Starting LBFGS iteration    1 ...
================================================================================
 Writing xyz coordinates to file "graphite.xyz" ... done

 Writing continuation file "graphite.continuation" ...done
 Backing up NGWFs to file "graphite.tightbox_ngwfs.bfgs_back" ... done
 Backing up Hamiltonian to file "graphite.ham.bfgs_back" ... done
  
 +------------+-------------+-------------+-----------------+ <-- min LBFGS
 |    Step    |   lambda    |   F.delta   |    enthalpy     | <-- min LBFGS
 +------------+-------------+-------------+-----------------+ <-- min LBFGS
 |  previous  |    0.000000 |    0.000717 |    -3141.374755 | <-- min LBFGS
 +------------+-------------+-------------+-----------------+ <-- min LBFGS
  

--------------------------------------------------------------------------------
 LBFGS: starting iteration   1 with trial guess (lambda=    1.000000)
--------------------------------------------------------------------------------
 
                           -------------------------------
                                     Cell Contents
                           -------------------------------
 
            xxxxxxxxxxxxxxxxxxxxxxxxxxxxxxxxxxxxxxxxxxxxxxxxxxxxxxxxxxxx
            x  Element    Atom      Absolute co-ordinates of atoms     x
            x            Number        x           y           z       x
            x----------------------------------------------------------x
            x    Li        1        0.035163   37.133767   16.428761   x
            x    Li        2        0.035385   27.810977   16.429735   x
            x    Li        3        0.035105   18.486142   16.428409   x
            x    Li        4        0.034980    9.170430   16.426738   x
            x    Li        5        8.133519   32.464593   16.428598   x
            x    Li        6        8.134406   23.152286   16.430899   x
            x    Li        7        8.139356   13.829829   16.421542   x
            x    Li        8        8.136736    4.515207   16.426405   x
            x    Li        9       16.235836    9.176176   16.407833   x
            x    Li       10       16.236056   18.477919   16.417761   x
            x    Li       11       16.236204   27.810827   16.428996   x
            x    Li       12       16.235977   37.137526   16.428466   x
            x    Li       13       24.332623   32.464156   16.425157   x
            x    Li       14       24.331755   23.152439   16.427307   x
            x    Li       15       24.324853   13.830627   16.419362   x
            x    Li       16       24.327901    4.514676   16.424591   x
            x    Li       17       32.408924   37.132393   16.427572   x
            x    Li       18       32.408832   27.810856   16.425507   x
            x    Li       19       32.409591   18.487488   16.427409   x
            x    Li       20       32.409669    9.170426   16.428579   x
            x    Li       21       40.461205   32.461513   16.418806   x
            x    Li       22       40.456295   23.156342   16.424664   x
            x    Li       23       40.452233   13.832862   16.426455   x
            x    Li       24       40.452812    4.511077   16.428106   x
            x    Li       25       48.477658   37.124268   16.415379   x
            x    Li       26       48.477538   27.816188   16.405345   x
            x    Li       27       48.477671   18.490914   16.426085   x
            x    Li       28       48.477684    9.170256   16.426834   x
            x    Li       29       56.515963   32.462258   16.417979   x
            x    Li       30       56.519673   23.155695   16.423991   x
            x    Li       31       56.524813   13.832305   16.424503   x
            x    Li       32       56.523992    4.511612   16.425761   x
            x    C        33       18.932455    9.202308   12.884555   x
            x    C        34       13.513554    9.202219   12.886730   x
            x    C        35       14.871478   11.544572   12.884492   x
            x    C        36       17.574399   11.544713   12.885407   x
            x    C        37       51.212550   27.842123   12.885783   x
            x    C        38       45.797311   27.842021   12.886461   x
            x    C        39       47.154520   30.184565   12.884602   x
            x    C        40       49.855978   30.184343   12.886169   x
            x    C        41       14.870813    6.858632   12.885834   x
            x    C        42       17.575043    6.858633   12.886698   x
            x    C        43       21.589437   13.863006   12.897458   x
            x    C        44       18.917180   13.862641   12.890103   x
            x    C        45       13.528786   13.862680   12.888366   x
            x    C        46       14.871349   16.180504   12.896976   x
            x    C        47       17.574802   16.180432   12.897896   x
            x    C        48       47.153767   25.498344   12.885915   x
            x    C        49       49.856439   25.498862   12.887143   x
            x    C        50       53.867698   32.502878   12.895624   x
            x    C        51       51.196338   32.502735   12.890307   x
            x    C        52       45.813789   32.502551   12.888855   x
            x    C        53       47.154164   34.820321   12.897085   x
            x    C        54       49.856236   34.820806   12.898317   x
            x    C        55       14.871792    2.222842   12.894872   x
            x    C        56       17.573999    2.223103   12.895907   x
            x    C        57       22.945518    2.199730   12.904700   x
            x    C        58        9.499584    2.199246   12.906288   x
            x    C        59       63.294762    2.224804   12.901493   x
            x    C        60        6.796701    2.199518   12.906879   x
            x    C        61       31.017469    2.224143   12.902866   x
            x    C        62        1.425671    2.224235   12.903152   x
            x    C        63       25.648018    2.199814   12.905927   x
            x    C        64       33.718309    2.224393   12.903112   x
            x    C        65       39.086348    2.199636   12.908799   x
            x    C        66       55.223229    2.199860   12.903076   x
            x    C        67       57.925091    2.200583   12.906261   x
            x    C        68       47.154880    2.224053   12.891910   x
            x    C        69       41.787787    2.199528   12.906948   x
            x    C        70       49.855338    2.223916   12.892697   x
            x    C        71       18.917194    4.540421   12.886001   x
            x    C        72       13.528601    4.540262   12.884366   x
            x    C        73       10.856031    4.541572   12.896583   x
            x    C        74       27.004774    4.542686   12.901196   x
            x    C        75        5.439707    4.542456   12.904701   x
            x    C        76       21.589392    4.541891   12.898382   x
            x    C        77       59.280818    4.542575   12.903920   x
            x    C        78        2.767466    4.542231   12.899015   x
            x    C        79       35.059392    4.541792   12.901411   x
            x    C        80       61.952586    4.542271   12.897774   x
            x    C        81       29.676527    4.542163   12.898814   x
            x    C        82       43.143448    4.541912   12.903624   x
            x    C        83       51.195588    4.541743   12.894150   x
            x    C        84       37.730613    4.541964   12.909020   x
            x    C        85       53.866790    4.542447   12.902290   x
            x    C        86       45.814250    4.541408   12.894390   x
            x    C        87       22.946615    6.883389   12.893393   x
            x    C        88       63.294544    6.859992   12.905893   x
            x    C        89        6.796996    6.883939   12.897878   x
            x    C        90       31.016587    6.860533   12.909214   x
            x    C        91       39.086925    6.883249   12.903661   x
            x    C        92       57.924334    6.883598   12.900924   x
            x    C        93        1.426707    6.860701   12.907522   x
            x    C        94        9.498650    6.883282   12.894914   x
            x    C        95       25.647900    6.884199   12.897163   x
            x    C        96       33.718582    6.859656   12.909641   x
            x    C        97       55.223471    6.884176   12.899810   x
            x    C        98       47.154085    6.859415   12.905991   x
            x    C        99       41.787371    6.883378   12.904127   x
            x    C       100       49.855942    6.860032   12.906493   x
            x    C       101       51.211094    9.202402   12.904376   x
            x    C       102       59.265580    9.202134   12.895911   x
            x    C       103        2.782514    9.202851   12.902772   x
            x    C       104       26.989782    9.202018   12.894158   x
            x    C       105       35.074593    9.202597   12.904200   x
            x    C       106       43.127324    9.201598   12.900232   x
            x    C       107       53.882202    9.201985   12.896954   x
            x    C       108       61.937975    9.203025   12.902819   x
            x    C       109        5.454566    9.201894   12.893987   x
            x    C       110       21.605203    9.201709   12.885777   x
            x    C       111       29.661220    9.202774   12.906195   x
            x    C       112       37.746344    9.201687   12.898422   x
            x    C       113       45.798250    9.202130   12.906610   x
            x    C       114       10.840645    9.201482   12.887022   x
            x    C       115       47.154620   11.543694   12.903567   x
            x    C       116       55.222762   11.520158   12.904197   x
            x    C       117       63.295399   11.544844   12.899415   x
            x    C       118       31.017037   11.543861   12.901931   x
            x    C       119       39.086135   11.520468   12.906938   x
            x    C       120       49.855197   11.543524   12.904013   x
            x    C       121       57.925033   11.521090   12.904482   x
            x    C       122        1.426254   11.543951   12.900432   x
            x    C       123       33.717754   11.544409   12.902977   x
            x    C       124       41.787818   11.520058   12.908201   x
            x    C       125        6.796540   11.519916   12.899993   x
            x    C       126       22.945999   11.520428   12.896858   x
            x    C       127       25.648433   11.520073   12.899019   x
            x    C       128        9.499360   11.520103   12.898485   x
            x    C       129       45.813817   13.861199   12.901159   x
            x    C       130       43.143004   13.862600   12.905214   x
            x    C       131       51.195616   13.861414   12.900772   x
            x    C       132       59.281010   13.863372   12.901908   x
            x    C       133       35.059158   13.862017   12.899626   x
            x    C       134       53.866777   13.862913   12.903931   x
            x    C       135       61.952875   13.862363   12.896540   x
            x    C       136       29.676165   13.861854   12.895256   x
            x    C       137       37.730366   13.863004   12.906561   x
            x    C       138        2.767995   13.861818   12.895596   x
            x    C       139       27.004472   13.862844   12.895721   x
            x    C       140        5.440226   13.862671   12.899168   x
            x    C       141       10.856240   13.862882   12.895397   x
            x    C       142       47.153890   16.178935   12.909337   x
            x    C       143       55.223970   16.204188   12.899771   x
            x    C       144       41.786648   16.203709   12.903864   x
            x    C       145       49.855862   16.179473   12.910023   x
            x    C       146       39.086607   16.204070   12.903201   x
            x    C       147       63.294520   16.180132   12.906369   x
            x    C       148       31.016427   16.180363   12.906752   x
            x    C       149       57.924536   16.204138   12.900765   x
            x    C       150       33.718573   16.179941   12.908029   x
            x    C       151        6.797805   16.204339   12.895277   x
            x    C       152        1.426807   16.180376   12.906785   x
            x    C       153       25.647301   16.204582   12.894183   x
            x    C       154       22.946131   16.204366   12.893074   x
            x    C       155        9.499334   16.204276   12.894869   x
            x    C       156       51.211468   18.521613   12.904158   x
            x    C       157       45.797846   18.521486   12.905674   x
            x    C       158       43.126788   18.521183   12.900208   x
            x    C       159       53.882702   18.521363   12.897534   x
            x    C       160       35.074675   18.522748   12.903902   x
[...]
 C    40 -- C    48       -0.06     -0.00      5.40641
 C   150 -- C   176       -0.06      0.00      5.40641
 C   238 -- C   260       -0.06     -0.00      5.40641
 C   145 -- C   172       -0.06     -0.00      5.40642
 C    54 -- C    68       -0.06     -0.00      5.40643
 C    66 -- C    92       -0.06      0.00      5.40644
 C    65 -- C    99       -0.06     -0.00      5.40647
 C   175 -- C   206       -0.06     -0.00      5.40650
 C   180 -- C   204       -0.06      0.00      5.40656
 C   244 -- C   271       -0.06     -0.00      5.40657
 C   217 -- C   232       -0.06     -0.00      5.40658
 C   236 -- C   261       -0.06     -0.00      5.40659
 C   245 -- C   268       -0.06     -0.00      5.40663
 C   147 -- C   181       -0.06      0.00      5.40665
 C    53 -- C    70       -0.06     -0.00      5.40666
 C   215 -- C   237       -0.06     -0.00      5.40669
 C   142 -- C   173       -0.06     -0.00      5.40670
 C   183 -- C   209       -0.06      0.00      5.40671
 C    90 -- C   123       -0.06     -0.00      5.40674
 C    67 -- C    97       -0.06      0.00      5.40676
 C   205 -- C   239       -0.06     -0.00      5.40680
 C    59 -- C   267       -0.06      0.00      5.40681
 C   124 -- C   146       -0.06     -0.00      5.40683
 C   210 -- C   234       -0.06      0.00      5.40690
 C   174 -- C   212       -0.06      0.00      5.40696
 C   186 -- C   208       -0.06     -0.00      5.40703
 C    63 -- C    87       -0.06     -0.00      5.40704
 C   127 -- C   154       -0.06     -0.00      5.40706
 C   243 -- C   270       -0.06     -0.00      5.40712
 C    35 -- C    42       -0.06     -0.00      5.40715
 C   116 -- C   149       -0.06     -0.00      5.40716
 C    57 -- C    95       -0.06      0.00      5.40718
 C    96 -- C   118       -0.06      0.00      5.40718
 C   207 -- C   240       -0.06     -0.00      5.40718
 C   184 -- C   214       -0.06      0.00      5.40726
 C    93 -- C   117       -0.06      0.00      5.40726
 C    55 -- C   262       -0.06     -0.00      5.40727
 C    36 -- C    41       -0.06     -0.00      5.40729
 C   233 -- C   266       -0.06     -0.00      5.40733
 C   125 -- C   155       -0.06     -0.00      5.40736
 C   182 -- C   216       -0.06     -0.00      5.40737
 C   126 -- C   153       -0.06     -0.00      5.40737
 C    88 -- C   122       -0.06     -0.00      5.40739
 C   213 -- C   235       -0.06      0.00      5.40740
 C    60 -- C    94       -0.06     -0.00      5.40745
 C    58 -- C    89       -0.06     -0.00      5.40747
 C    47 -- C   185       -0.06     -0.00      5.40752
 C    56 -- C   259       -0.06     -0.00      5.40754
 C    46 -- C   187       -0.06     -0.00      5.40765
 C   128 -- C   151       -0.06     -0.00      5.40768
 C   241 -- C   263       -0.06     -0.00      5.40773
 C   101 -- C   113       -0.06      0.00      5.41172
 C   286 -- C   288       -0.06      0.00      5.41213
 C    37 -- C    38       -0.06      0.00      5.41214
 C   130 -- C   137       -0.06     -0.00      5.41229
 C   156 -- C   157       -0.06      0.00      5.41233
 C    82 -- C    84       -0.06      0.00      5.41237
 C   257 -- C   258       -0.06     -0.00      5.41252
 C   190 -- C   192       -0.06      0.00      5.41257
 C   160 -- C   164       -0.06      0.00      5.41269
 C   280 -- C   282       -0.06      0.00      5.41278
 C   105 -- C   111       -0.06      0.00      5.41286
 C   220 -- C   225       -0.06      0.00      5.41292
 C    50 -- C   256       -0.06      0.00      5.41369
 C    77 -- C    85       -0.06      0.00      5.41375
 C   132 -- C   134       -0.06      0.00      5.41391
 C   191 -- C   193       -0.06      0.00      5.41399
 C   277 -- C   281       -0.06      0.00      5.41436
 C   163 -- C   165       -0.06      0.00      5.41452
 C   222 -- C   228       -0.06      0.00      5.41452
 C   103 -- C   108       -0.06      0.00      5.41466
 C    43 -- C   139       -0.06      0.00      5.41519
 C   194 -- C   202       -0.06      0.00      5.41525
 C   249 -- C   251       -0.06      0.00      5.41527
 C    74 -- C    76       -0.06      0.00      5.41542
 C   218 -- C   230       -0.06      0.00      5.41562
 C   169 -- C   171       -0.06      0.00      5.41603
 C    33 -- C    34       -0.06      0.00      5.41619
 C   140 -- C   141       -0.06     -0.00      5.41638
 C   273 -- C   274       -0.06      0.00      5.41639
 C   247 -- C   254       -0.06     -0.00      5.41643
 C   199 -- C   201       -0.06      0.00      5.41648
 C    73 -- C    75       -0.06      0.00      5.41651
=============================================================


============== Orbital energy and occupancy information for spin 1 =============

      Total number of orbitals:    2368
        Occupancy sum (kernel):    1110.185884603
   Occupancy sum (eigenvalues):    1110.185884603
                 HOMO-LUMO gap:       0.000760562 Eh
                 Mid-gap level:      -0.162786893 Eh

                        Orbital | Energy (Eh) | Occupancy
                            1    -1.956309634   1.0000000
                        .......   ...........   .........
                         1101    -0.167363014   0.7807207
                         1102    -0.167356814   0.7804759
                         1103    -0.167348414   0.7800237
                         1104    -0.167346499   0.7800088
                         1105    -0.164970538   0.6497519
                         1106    -0.164965299   0.6494956
                         1107    -0.164941812   0.6480360
                         1108    -0.164938265   0.6478535
                         1109    -0.163977147   0.5860538
                         1110    -0.163167174   0.5324722
                        ....... -- gap at 0K -- .........
                         1111    -0.162406612   0.4801289
                         1112    -0.162112508   0.4642225
                         1113    -0.162107340   0.4638664
                         1114    -0.162093210   0.4629332
                         1115    -0.162087955   0.4625683
                         1116    -0.161370752   0.4145700
                         1117    -0.161368542   0.4144120
                         1118    -0.156923125   0.1722823
                         1119    -0.156903339   0.1715709
                         1120    -0.156269378   0.1480865
                        .......   ...........   .........
                         2368     0.717567224   0.0000000

================================================================================

============== Orbital energy and occupancy information for spin 2 =============

      Total number of orbitals:    2368
        Occupancy sum (kernel):    1110.185884577
   Occupancy sum (eigenvalues):    1110.185884577
                 HOMO-LUMO gap:       0.000294104 Eh
                 Mid-gap level:      -0.162259560 Eh

                        Orbital | Energy (Eh) | Occupancy
                            1    -1.956309634   1.0000000
                        .......   ...........   .........
                         1102    -0.167356814   0.7804759
                         1103    -0.167348414   0.7800237
                         1104    -0.167346499   0.7800088
                         1105    -0.164970538   0.6497519
                         1106    -0.164965299   0.6494956
                         1107    -0.164941812   0.6480360
                         1108    -0.164938265   0.6478535
                         1109    -0.163977147   0.5860537
                         1110    -0.163167174   0.5324722
                         1111    -0.162406612   0.4801288
                        ....... -- gap at 0K -- .........
                         1112    -0.162112508   0.4642225
                         1113    -0.162107340   0.4638664
                         1114    -0.162093210   0.4629332
                         1115    -0.162087955   0.4625682
                         1116    -0.161370752   0.4145700
                         1117    -0.161368541   0.4144120
                         1118    -0.156923126   0.1722823
                         1119    -0.156903338   0.1715709
                         1120    -0.156269378   0.1480864
                         1121    -0.156214700   0.1462934
                        .......   ...........   .........
                         2368     0.717567224   0.0000000

================================================================================

===================== Writing canonical molecular orbitals =====================
    Spin 1
| Orbital  Energy (eV)  Norm     |
| HOMO-5   -4.48907675  1.000000 | 
| HOMO-4   -4.48893420  1.000000 | 
| HOMO-3   -4.48829509  1.000000 | 
| HOMO-2   -4.48819856  1.000000 | 
| HOMO-1   -4.46204522  1.000000 | 
| HOMO     -4.44000473  1.000000 | 
| LUMO     -4.41930877  1.000000 | 
| LUMO+1   -4.41130580  1.000000 | 
| LUMO+2   -4.41116518  1.000000 | 
| LUMO+3   -4.41078068  1.000000 | 
| LUMO+4   -4.41063770  1.000000 | 
| LUMO+5   -4.39112159  1.000000 | 
================================================================================

===================== Writing canonical molecular orbitals =====================
    Spin 2
| Orbital  Energy (eV)  Norm     |
| HOMO-5   -4.48893419  1.000000 | 
| HOMO-4   -4.48829509  1.000000 | 
| HOMO-3   -4.48819856  1.000000 | 
| HOMO-2   -4.46204522  1.000000 | 
| HOMO-1   -4.44000473  1.000000 | 
| HOMO     -4.41930878  1.000000 | 
| LUMO     -4.41130579  1.000000 | 
| LUMO+1   -4.41116518  1.000000 | 
| LUMO+2   -4.41078068  1.000000 | 
| LUMO+3   -4.41063769  1.000000 | 
| LUMO+4   -4.39112159  1.000000 | 
| LUMO+5   -4.39106144  1.000000 | 
================================================================================
 
=============== Density of States (DOS) calculation for UP spin ================
Writing "graphite_UP_DOS.txt" ... done
================================================================================
 
============== Density of States (DOS) calculation for DOWN spin ===============
Writing "graphite_DN_DOS.txt" ... done
================================================================================
 
Writing bands to file "graphite.val_bands" ... done

IS: Calculating electrolyte contribution to the atomic forces ...
================================================================================
 
***********************************************************
********** Summary of Forces (values in Eh/a) *************
*                                                         *
* ---------------------- Minimum ------------------------ *
* Atom:       363, |F|min =    0.00002642                 *
* Components:     Fx|min       Fy|min       Fz|min        *
*               0.00000377   0.00002428   0.00000970      *
*                                                         *
* ---------------------- Maximum ------------------------ *
* Atom:       320, |F|max =    0.00122459                 *
* Components:     Fx|max       Fy|max       Fz|max        *
*               0.00036608   0.00111146  -0.00036090      *
*                                                         *
* ---------------- Root Mean Square Force --------------- *
*                  |F|rms =    0.00040954                 *
* Components:     Fx|rms       Fy|rms       Fz|rms        *
*               0.00021542   0.00030356   0.00017078      *
***********************************************************
 

                                                      hartree           kcal/mol
IS: NB: Energy of pure electrolyte:         -0.08987943615957         -56.400196

------------------------------ TIMING INFORMATION ------------------------------
AVERAGE TIME:    6132.678s on    128 proc(s)                                    
TOTAL TIME:      6132.683s on    128 proc(s)                                    
================= AVERAGE TIMINGS FROM ALL PROCS (CUMULATIVE) ==================
|| TAG                                    #calls    cpu time   %total  Gflops ||
|| linalg_invert_sym_matrix             :     4        0.00s   0.000%  ------ || (1 procs only)
|| density_fftbox_interp_mult_imbal     :  8040        0.00s   0.000%  ------ ||
|| sparse_set_to_garbage                :    80        0.00s   0.000%  ------ ||
|| onetep.F90 final imbalance           :     1        0.02s   0.000%  ------ ||
|| ewald_calculate_forces_realspace     :     4        0.02s   0.000%  ------ ||
|| onetep.F90 main loop imbalance       :     1        0.03s   0.000%  ------ ||
|| vdwcorrection_calculate_forces       :     4        0.03s   0.001%  ------ ||
|| vdwcorrection_calculate_energy       :     4        0.04s   0.001%  ------ ||
|| basis_extract_function_from_box      :   666        0.05s   0.001%  ------ ||
|| pseudopotentials_local_on_grid       :     4        0.08s   0.001%  ------ ||
|| pseudopotentials_core_density        :     4        0.08s   0.001%  ------ ||
|| parallel_prepare_fd_halos_alloc      : 21339        0.11s   0.002%  ------ ||
|| sparse_spam3toblacs_real_fast_imbal  :   750        0.13s   0.002%  ------ ||
|| pseudopotentials_nonlocal_mat        :    12        0.19s   0.003%  ------ ||
|| parallel_prepare_fd_halos_request    : 21339        0.20s   0.003%  ------ ||
|| sparse_blacstospam3_real_fast_imbal  :   736        0.26s   0.004%  ------ ||
|| restart_hamiltonian_read             :     4        0.32s   0.005%  ------ ||
|| restart_hamiltonian_write            :     8        0.42s   0.007%  ------ ||
|| pseudo_make_structure_factor         :     4        0.54s   0.009%  ------ ||
|| sparse_spam3toblacs_real_fast_B2     : 96000        0.66s   0.011%  ------ ||
|| parallel_prepare_fd_halos_satisfy    : 21339        0.95s   0.015%  ------ ||
|| smeared_ion_generate_potential_PBC   :     4        1.29s   0.021%  ------ ||
|| ngwf_gradient_coeffs                 :     8        1.37s   0.022%  ------ ||
|| sparse_init                          :     4        1.59s   0.026%  ------ ||
|| restart_kernel_write                 :    12        1.93s   0.031%  ------ ||
|| pseudo_local_calculate_forces        :     4        2.12s   0.035%  ------ ||
|| energy_and_force_init_cell           :     1        2.44s   0.040%  ------ ||
|| integrals_grad_spam3                 :     4        2.47s   0.040%  ------ ||
|| nonsc_forces_ngwfs_calc              :     4        2.48s   0.040%  ------ ||
|| ewald_calculate_energy               :     4        2.73s   0.044%  ------ ||
|| density_init_guess_real              :     4        2.73s   0.045%  ------ ||
|| sparse_embed_hotelling_invert_embed  :    12        2.82s   0.046%  ------ ||
|| projectors_func_ovlp_box_spam3       :    12        3.05s   0.050%  ------ ||
|| pseudo_nlcc_calculate_forces         :     4        3.08s   0.050%  ------ ||
|| projectors_func_grad_ovlp_box_spam3  :    12        3.28s   0.054%  ------ ||
|| pseudo_nl_calculate_forces           :     4        3.71s   0.061%  ------ ||
|| fourier_filter_cell                  :   160        4.32s   0.070% 206.506 ||
|| eigenstates_calculate                :     1        4.32s   0.070%  ------ ||
|| projectors_init_fftbox_recip         :    56        5.43s   0.089%  ------ ||
|| sparse_trace                         :  2806        5.53s   0.090%  ------ ||
|| restart_ngwfs_tightbox_input         :     4        5.60s   0.091%  ------ ||
|| fourier_apply_box_pair               :   744        6.75s   0.110%  1.778k ||
|| function_ops_brappd_ketppd_spam3     :    20        7.28s   0.119%  ------ ||
|| boltzmann_init_steric_pot            :     4        7.48s   0.122%  ------ ||
|| parallel_prepare_fd_halos_comms_imbal: 21339        8.03s   0.131%  ------ ||
|| ewald_calculate_forces_recipspace    :     4        8.42s   0.137%  ------ ||
|| ewald_calculate_forces               :     4        8.46s   0.138%  ------ ||
|| parallel_prepare_fd_halos_clear      : 21339        8.57s   0.140%  ------ ||
|| basis_copy_function_to_box           : 10933        9.11s   0.149%  ------ ||
|| integrals_kinetic_spam3              :    12       11.35s   0.185%  ------ ||
|| parallel_prepare_fd_halos_comms_wait : 21339       14.37s   0.234%  ------ ||
|| sparse_product                       :  1626       20.50s   0.334%  ------ ||
|| fourier_interpolate_cell             :   402       20.79s   0.339% 107.751 ||
|| projectors_gradient_batch            :    32       25.15s   0.410%  ------ ||
|| fourier_apply_cell_backward          :  1676       27.34s   0.446% 172.393 ||
|| properties_calculate                 :     1       30.45s   0.497%  ------ ||
|| sparse_spam3toblacs_real_fast_B1     : 96000       30.53s   0.498%  ------ ||
|| parallel_prepare_fd_halos            : 21339       32.35s   0.528%  ------ ||
|| sparse_spam3toblacs_real_fast        :   750       32.71s   0.533%  ------ ||
|| basis_dot_function_with_box          : 1.966M      36.05s   0.588%  ------ ||
|| cell_grid_extract_box_real           :  3200       40.14s   0.654%  ------ ||
|| restart_ngwfs_tightbox_output        :     5       45.51s   0.742%  ------ ||
|| sparse_blacstospam3_real_fast        :   736       56.94s   0.929%  ------ ||
|| xc_energy_potential                  :   205       61.30s   1.000%  ------ ||
|| fourier_apply_cell_forward           :  1660       77.97s   1.271%  59.874 ||
|| cell_grid_deposit_box_real           :  8560       94.10s   1.534%  ------ ||
|| finite_difference_derivative         : 21339       97.44s   1.589%  ------ ||
|| ngwf_gradient_build_batch            :    32      108.02s   1.761%  ------ ||
|| basis_add_function_to_box            : 6.041M     115.33s   1.881%  ------ ||
|| dense_eigensolve                     :   362      117.39s   1.914%  ------ ||
|| integrals_locpot_mat_els_batch       :   288      140.58s   2.292%  ------ ||
|| hamiltonian_energy_components        :     4      144.70s   2.360%  ------ ||
|| edft_diag_ngwf_ham                   :   360      147.86s   2.411%  ------ ||
|| ngwf_gradient_batch                  :    32      164.72s   2.686%  ------ ||
|| ngwf_gradient_lnv                    :     8      171.15s   2.791%  ------ ||
|| implicit_solvent_boltzmann_forces    :     4      202.26s   3.298%  ------ ||
|| edft_apply_smearing_operator         :   180      227.24s   3.705%  ------ ||
|| density_batch_row_sums               :   804      274.40s   4.474%  ------ ||
|| density_fftbox_deposit_to_cell       :  8040      356.51s   5.813%  ------ ||
|| smeared_ion_force_correction         :     8      398.54s   6.499%  ------ ||
|| implicit_solvent_soft_sphere_forces  :     4      420.33s   6.854%  ------ ||
|| potential_apply_to_ngwf_batch        :   288      568.14s   9.264%  ------ ||
|| integrals_locpot_dbl_grid            :   144      709.43s  11.568%  ------ ||
|| fourier_apply_box                    : 22885      722.24s  11.777%  2.481k ||
|| density_fftbox_interpolate_multiply  :  8040      853.70s  13.921%  ------ ||
|| dl_mg_solver_calls                   :   201      959.61s  15.648%  ------ ||
|| multigrid_calculate_hartree          :   201      981.21s  16.000%  ------ ||
|| forces_calculate                     :     4     1082.00s  17.643%  ------ ||
|| density_batch_interp_deposit         :   804     1650.88s  26.919%  ------ ||
|| density_on_dbl_grid                  :   402     2059.44s  33.581%  ------ ||
|| hamiltonian_lhxc_calculate           :   193     3101.62s  50.575%  ------ ||
|| edft_calculate                       :     8     3847.31s  62.735%  ------ ||
|| ngwf_cg_optimise                     :     4     4297.63s  70.078%  ------ ||
|| energy_and_forces                    :     4     6107.15s  99.584%  ------ ||
|| total_time                           :     1     6132.68s 100.000%  ------ ||
================================================================================
Overhead of generating timer report: 
- 0 ms averaging over threads,
- 29 ms ensuring consistency across MPI ranks,
- 37 ms printing in order.

Job completed: 01-11-2023 01:16 (+0000)

