==================================================================================
It's Fri 20 Oct 2023 11:54:11 AM BST.
*** Starting onetep_launcher (node nid001175, PIDs 16378 16379 16380 16381 16382 16383 16384 16385 16386 16387 16388 16389 16390 16391 16392 16393)...
    - ONETEP arguments: graphite.dat
    - Current directory: /mnt/lustre/a2fs-work3/work/e89/e89/arihant/linuc/theta/new/04/0.-1
    - Launcher executable directory: /mnt/lustre/a2fs-work3/work/e89/e89/arihant/onetep/utils
    - (-e) ONETEP executable specified through command-line: /work/e89/e89/arihant/onetep/bin/onetep.archer2_2023_cray
      ... trying /work/e89/e89/arihant/onetep/bin/onetep.archer2_2023_cray
          -> looks OK
*** Setting up environment...
    - (-s) Process stack size: unlimited
    - (-t) OMP_NUM_THREADS: 8
    - (-o) OMP_STACKSIZE: 64M
    - (-c) Maximum core file size: 2048000
    - (-d) decfort_dump_flag: n
    - (-m) I_MPI_OFA_TRANSLATION_CACHE: 0
    - (-m) I_MPI_DAPL_TRANSLATION_CACHE: 0
    - (-m) I_MPI_DAPL_UD_TRANSLATION_CACHE: 0
*** Starting ONETEP...
    - /work/e89/e89/arihant/onetep/bin/onetep.archer2_2023_cray graphite.dat
=================================================================================
_________________________________________________________________________________
 +---------------------------------------------------------------+
 |                                                               |
 |        ####### #     # ####### ####### ####### ######         |
 |        #     # ##    # #          #    #       #     #        |
 |        #     # # #   # #          #    #       #     #        |
 |        #     # #  #  # #####      #    #####   ######         |
 |        #     # #   # # #          #    #       #              |
 |        #     # #    ## #          #    #       #              |
 |        ####### #     # #######    #    ####### #              |
 |                                                               |
 |        Linear-Scaling Ab Initio Total Energy Program          |
 |                                                               |
 |          Release for academic collaborators of ODG            |
 |                                             Version 6.1.59    |
 | Remote: https://github.com/onetep-devel/onetep.git            |
 | Local branch: master                                          |
 | Commit ID: 3df6b8ca88fa1735659d3248d54c94b50edec21b           |
 | Date: Thu Oct 5 13:49:52 2023 +0200                           |
 | Working tree clean                                            |
 |                                                               |
 +---------------------------------------------------------------+
 |                                                               |
 |  Authors:                                                     |
 |  Jacek Dziedzic, Peter D. Haynes, Nicholas D. M. Hine,        |
 |  Arash A. Mostofi, Mike C. Payne and Chris-Kriton Skylaris    |
 |                                                               |
 |  Contributors:                                                |
 |  J. Aarons, L. Andrinopoulos, P. W. Avraam, R. A. Bell,       |
 |  A. Bhandari, G. A. Bramley, R. J. Charlton, S. J. Clark,     |
 |  R. J. Clements, G. C. Constantinescu, F. Corsetti,           |
 |  N. Corsini, O. Dieguez, S. M. M. Dubois, K. K. B. Duff,      |
 |  J. M. Escartin, M. Escobar Azor, A. Greco,                   |
 |  H. Helal, Q. O. Hill, L. P. Lee, J.-H. Li,                   |
 |  E. B. Linscott, G. Moynihan, D. D. O`Regan,                  |
 |  O. K. Okan, M. J. S. Phipps, C. J. Pickard,                  |
 |  J. C. A. Prentice, M. I. J. Probert, L. E. Ratcliff,         |
 |  M. Robinson, A. Ruiz Serrano, M. dos Santos Dias,            |
 |  J. S. Spencer, E. W. Tait, G. Teobaldi, D. Turban,           |
 |  V. Vitale, K. A. Wilkinson, C. Weber, J. C. Womack,          |
 |  N. Yeung and T. J. Zuehlsdorff                               |
 |                                                               |
 |                                   Copyright (c) 2004-2023     |
 |                                                               |
 |  Please cite:                                                 |
 |  "The ONETEP linear-scaling density functional theory program"|
 |   J. Chem. Phys. 152(17) 174111 (2020)                        |
 |                                                               |
 |          in all publications arising from your use of ONETEP. |
 |                                                               |
 +---------------------------------------------------------------+
 |                                                               |
 |   ONETEP is based on developments described in the following  |
 |   publications:                                               |
 |                                                               |
 |  "Nonorthogonal generalized Wannier function pseudopotential  |
 |   plane-wave method".                                         |
 |   C.-K. Skylaris, A. A. Mostofi, P. D. Haynes, O. Dieguez,    |
 |   M. C. Payne.                                                |
 |   Phys. Rev. B 66 035119 (2002).                              |
 |                                                               |
 |  "Preconditioned iterative minimization for linear-scaling    |
 |   electronic structure calculations".                         |
 |   A. A. Mostofi, P. D. Haynes, C.-K. Skylaris, M. C. Payne.   |
 |   J. Chem. Phys. 119(17), pp.8842-8848 (2003).                |
 |                                                               |
 |  "Total-energy calculations on a real space grid with         |
 |   localized functions and a plane-wave basis".                |
 |   A. A. Mostofi, C.-K. Skylaris, P. D. Haynes, M. C. Payne.   |
 |   Comput. Phys. Commun. 147, pp.788-802 (2002).               |
 |                                                               |
 |  "Accurate kinetic energy evaluation in electronic structure  |
 |   calculations with localized functions on real space grids"  |
 |   C.-K. Skylaris, A. A. Mostofi, P. D. Haynes, C. J. Pickard, |
 |   M. C. Payne.                                                |
 |   Comput. Phys. Commun. 140, pp.315-322 (2001).               |
 |                                                               |
 |  "Accurate ionic forces and geometry optimization in linear-  |
 |   scaling density-functional theory with local orbitals"      |
 |   N. D. M. Hine, M. Robinson, P. D. Haynes, C.-K. Skylaris,   |
 |   M. C. Payne, and A. A. Mostofi.                             |
 |   Phys. Rev. B 83 195102 (2011).                              |
 |                                                               |
 +---------------------------------------------------------------+

Job started: 20-10-2023 11:54 (+0100)
 
Reading parameters from file "graphite.dat" ...... done

If your calculation crashes here, before "Checking processes and threads..."
is displayed, then your stack size is insufficient.
If so, use "ulimit -s unlimited" at runtime.
You can disable this check with "check_stack_size F".

Checking processes and threads...
   Determining the default number of threads...
      No default threads set at compilation time: defaulting to 1.
      OpenMP library call suggests 8 threads.
      Hybrid MPI-OpenMP compilation detected.
      Number of MPI processes > 1.
      OMP_NUM_THREADS environment variable present and
      its value matches the one obtained from the OpenMP library call.
      Using this value as default.
      Default threads: 8
      Default applies to threads_max and threads_num_fftboxes.
      Settings in the input file override this default.
   ... done

   Running with 128 MPI processes.
   There are 16 MPI processes running on the same node as the root process.
   Each MPI process is using: 
               1 threads for simulation cell FFTs.
               1 threads for parallel FFT box operations.
               8 threads for loops over batched FFT box operations.
               8 threads in other parallel regions.
   MPI Interface: S1 (use mpi_f08) (-DMPI -DUSE_MPI_F08).
   MPI_ASYNC_PROTECTS_NONBLOCKING: Yes. MPI_SUBARRAYS_SUPPORTED: Yes.
   GPU Interface: None.
... done

Basic input checks...
Resetting ngwf_cg_rotate to TRUE for EDFT calculations
... done

Reading geometry and species blocks from file "graphite.dat" ...
  Reading POSITIONS geometry from str.xyz

  <species_atomic_set> block not found: NGWF initialisation set to SOLVE
IS: Dielectric excluded regions:
    - NONE.
IS: Assigning soft sphere radii for soft sphere solvation...
IS: No soft sphere radii specified. Default Alvarez radii used for all atoms.

----------- SOFT SPHERE RADII -----------
Li  5.333
C   4.442
-----------------------------------------

    
  Number of PPD points along a3 set to 1.  This is 
  the default value, it may have been provided also in the input file.
... done
 Writing xyz coordinates to file "graphite.xyz" ... done


--------------------------------------------------------------------------------
---------------------------------- INPUT FILE ----------------------------------
--------------------------------------------------------------------------------

task geometryoptimization                                                       
geom_method LBFGS                                                               
geom_continuation F                                                             
write_xyz T                                                                     
edft_grand_canonical T                                                          
edft_reference_potential  -4.42 eV                                              
edft_electrode_potential -0.10 V                                                
edft_nelec_thres 0.000001                                                       
is_dielectric_function soft_sphere                                              
is_implicit_solvent T                                                           
is_smeared_ion_rep T                                                            
is_include_apolar T                                                             
is_solvation_properties F                                                       
is_pbe                    full                                                  
is_pbe_temperature        298.15                                                
is_pbe_bc_debye_screening T                                                     
is_pbe_neutralisation_scheme counterions_auto                                   
is_pbe_energy_tolerance 1E+50                                                   
is_bc_coarseness 5                                                              
is_bc_threshold 1E-9                                                            
is_bulk_permittivity 90.7                                                       
is_solvent_surf_tension 0.0506 N/m                                              
%block sol_ions                                                                 
Li  +1 1.0                                                                      
PF6 -1 1.0                                                                      
%endblock sol_ions                                                              
is_steric_pot_type M                                                            
is_hc_steric_dens_isovalue  0.001                                               
is_hc_steric_smearing         0.4 bohr                                          
is_steric_write T                                                               
%block species_solvent_radius                                                   
Li 3.0                                                                          
C 3.0                                                                           
%endblock species_solvent_radius                                                
multigrid_bc:   P P P                                                           
ion_ion_bc:     P P P                                                           
pspot_bc:       P P P                                                           
smeared_ion_bc: P P P                                                           
mg_max_iters_vcycle 500                                                         
mg_vcyc_smoother_iter_pre 4                                                     
mg_vcyc_smoother_iter_post 4                                                    
mg_max_res_ratio 1000.0                                                         
mg_max_iters_newton 300                                                         
edft                    : T                                                     
edft_smearing_width     : 0.1 eV                                                
spin                    : 0.0                                                   
edft_spin_fix           : 2                                                     
spin_polarized          : T                                                     
cutoff_energy :  1000 eV                                                        
kernel_cutoff : 1000 bohr                                                       
xc_functional PBE                                                               
dispersion 4                                                                    
output_detail VERBOSE                                                           
do_properties T                                                                 
cube_format F                                                                   
dx_format F                                                                     
write_denskern T                                                                
write_tightbox_ngwfs T                                                          
write_hamiltonian T                                                             
%block species                                                                  
Li Li 3  5  8.0                                                                 
C  C  6  4  8.0                                                                 
%endblock species                                                               
%block species_pot                                                              
Li '/work/e89/e89/arihant/pseudo/Li.usp'                                        
C '/work/e89/e89/arihant/pseudo/C.usp'                                          
%endblock species_pot                                                           
%BLOCK LATTICE_CART                                                             
ang                                                                             
34.16920551     0.00000000     0.00000000                                       
0.00000000    19.72760000     0.00000000                                        
0.00000000     0.00000000   100.02798000                                        
%ENDBLOCK LATTICE_CART                                                          
positions_xyz_file str.xyz                                                      
     Hash =   000000553722974252882578

--------------------------------------------------------------------------------
-------------------------------- END INPUT FILE --------------------------------
--------------------------------------------------------------------------------


 
 ESDF WARNING(1): "ispbeenergytolerance" (esdf_physical) has no units. Assume "hartree".
<<<<<<<<<<<<<<<<<<<<<<<<<<<<<<<<< Full system >>>>>>>>>>>>>>>>>>>>>>>>>>>>>>>>>>
<<<<<<<<<<<<<<<<<<<<<<<<< Pseudopotential information >>>>>>>>>>>>>>>>>>>>>>>>>>
File: /work/e89/e89/arihant/pseudo/Li.usp [ 2001 points up to Gmax=  52.9 (1/bohr)]
  Atomic number:  3;  ionic charge:  3.000000
    Shell 1: l = 0; rc = 1.19 bohr
    Shell 2: l = 0; rc = 1.25 bohr
File: /work/e89/e89/arihant/pseudo/C.usp [ 2001 points up to Gmax=  52.9 (1/bohr)]
  Atomic number:  6;  ionic charge:  4.000000
    Shell 1: l = 0; rc = 1.19 bohr
  Core charge supplied for Nonlinear Core Corrections
<<<<<<<<<<<<<<<<<<<<<<<<<<<<<<<<<<<<<<<<>>>>>>>>>>>>>>>>>>>>>>>>>>>>>>>>>>>>>>>>

-------------------------- Atom counting information ---------------------------
Symbol    Natoms    Nngwfs    Nprojs
  Li         4        20         8
  C        512      2048       512
.......   ......    ......    ......
Totals:    516      2068       520
--------------------------------------------------------------------------------

=============================== PSINC grid sizes ===============================
                      Simulation cell:  143 x  91 x 416
                              FFT-box:  117 x  91 x 117
                                  PPD:   11 x   7 x   1
Grid space d1=  0.451541543008a0 (KE cutoff=  37.25706Eh =1013.81618eV)
Grid space d2=  0.409667706512a0 (KE cutoff=  45.26271Eh =1231.66098eV)
Grid space d3=  0.454388192297a0 (KE cutoff=  36.79171Eh =1001.15326eV)
================================================================================
  
WARNING in cell_grid_distribute:
Average of less than one 23-slab per proc, so workload cannot be
equally balanced between procs.

********************* Fourier parallelisation information **********************
       Coarse grid (whole simulation cell) dimensions:    143    91   416
          Real-space ('12') slabs/proc (min max mean):      3     4     3
         Recip-space ('23') slabs/proc (min max mean):      0     1     0
********************************************************************************

********************* Fourier parallelisation information **********************
       Double grid (whole simulation cell) dimensions:    286   182   832
          Real-space ('12') slabs/proc (min max mean):      6     7     6
         Recip-space ('23') slabs/proc (min max mean):      1     2     1
********************************************************************************

********************* Fourier parallelisation information **********************
         Fine grid (whole simulation cell) dimensions:    288   184   832
          Real-space ('12') slabs/proc (min max mean):      6     7     6
         Recip-space ('23') slabs/proc (min max mean):      1     2     1
         Grid scale modified to satisfy multigrid solver grid constraints
         Grid scale values after modifification:         2.01  2.02  2.00
********************************************************************************
ONETEP fine grid is 288 x 184 x 832 gridpoints, 64.5704 x 37.2798 x 189.0255 bohr.
FD multigrid is     288 x 184 x 832 gridpoints, 64.5704 x 37.2798 x 189.0255 bohr.


Atom SCF Calculation for Li : Z (AE atom) =   3 : Z (PS atom) =   3
Config String:
Orbitals (num,occ):  3     2.00 1.00 0.00
Orbitals   (num,l):  3        0    0    1
Real-space Grid (nr,dr,rmax): 1343    0.0059612519    8.0000000000
Spherical Bessel Basis (nsws,lmax,cutoff):   37    1  220.4959463253
Confining potential (l,width,scale):  0    3.0000000000  100.0000000000
Confining potential (l,width,scale):  1    3.0000000000  100.0000000000
  1         -3.7050169094   -5.2301177776    2.5388568852   -0.9989538802
  2         -6.0510920273   -4.2679357854    3.2724001845   -1.3422946715
  3         -6.7975021434   -3.8722499620    3.6648237887   -1.5325279919
  4         -7.0147472228   -3.7673066376    3.7864613280   -1.5966989055
  5         -7.0774132854   -3.7446783348    3.8157063634   -1.6161454686
  6         -7.0951992563   -3.7420177453    3.8204515040   -1.6217593843
  7         -7.1001226024   -3.7430426481    3.8200527077   -1.6233132433
  8         -7.1014239576   -3.7441529610    3.8191274553   -1.6237164860
  9         -7.1017352306   -3.7448434699    3.8184905098   -1.6238077213
 10         -7.1017916056   -3.7452114113    3.8181373932   -1.6238209669
 11         -7.1017908912   -3.7453946820    3.8179578223   -1.6238181917
 12         -7.1017822190   -3.7454828903    3.8178702968   -1.6238141227
 13         -7.1017768840   -3.7455162316    3.8178369316   -1.6238119017
 14         -7.1017732849   -3.7455353767    3.8178176959   -1.6238104459
 15         -7.1017709700   -3.7455463461    3.8178066371   -1.6238095253
 16         -7.1017695244   -3.7455526225    3.8178002910   -1.6238089565
 17         -7.1017686390   -3.7455562110    3.8177966534   -1.6238086105
 18         -7.1017681040   -3.7455582619    3.8177945697   -1.6238084022
 19         -7.1017677838   -3.7455594341    3.8177933764   -1.6238082778
 20         -7.1017675934   -3.7455601042    3.8177926929   -1.6238082039
 21         -7.1017674808   -3.7455604874    3.8177923014   -1.6238081602
 22         -7.1017674145   -3.7455607066    3.8177920771   -1.6238081344
Atom SCF converged after  22 iterations to a total energy of     -7.10176741

Atom SCF Calculation for C  : Z (AE atom) =   6 : Z (PS atom) =   4
Config String:
Orbitals (num,occ):  2     2.00 2.00
Orbitals   (num,l):  2        0    1
Real-space Grid (nr,dr,rmax): 1343    0.0059612519    8.0000000000
Spherical Bessel Basis (nsws,lmax,cutoff):   37    1  220.4959463253
Confining potential (l,width,scale):  0    3.0000000000  100.0000000000
Confining potential (l,width,scale):  1    3.0000000000  100.0000000000
  1         -5.8177092822   -1.2555419264    4.5135233515   -1.7471920893
  2         -5.6032261188   -1.3440047989    4.4246587726   -1.7090653419
  3         -5.5936068668   -1.3561735374    4.4140765627   -1.7034094417
  4         -5.5958505747   -1.3587284552    4.4121342699   -1.7022848669
  5         -5.5969687665   -1.3601698222    4.4109982405   -1.7017057890
  6         -5.5975400979   -1.3609792837    4.4103423276   -1.7013975981
  7         -5.5978435204   -1.3614297943    4.4099696476   -1.7012314972
  8         -5.5980096069   -1.3616786122    4.4097605138   -1.7011416075
  9         -5.5981021113   -1.3618152853    4.4096441572   -1.7010929151
 10         -5.5981539939   -1.3618900852    4.4095797860   -1.7010665406
 11         -5.5981831160   -1.3619309228    4.4095443105   -1.7010522599
 12         -5.5981994243   -1.3619531807    4.4095248124   -1.7010445305
 13         -5.5982085235   -1.3619652972    4.4095141175   -1.7010403487
 14         -5.5982135796   -1.3619718867    4.4095082606   -1.7010380870
 15         -5.5982163780   -1.3619754676    4.4095050573   -1.7010368642
 16         -5.5982179208   -1.3619774123    4.4095033073   -1.7010362032
 17         -5.5982187685   -1.3619784678    4.4095023522   -1.7010358460
 18         -5.5982192328   -1.3619790404    4.4095018314   -1.7010356530
 19         -5.5982194864   -1.3619793509    4.4095015476   -1.7010355488
 20         -5.5982196245   -1.3619795192    4.4095013931   -1.7010354925
 21         -5.5982196995   -1.3619796104    4.4095013090   -1.7010354621
Atom SCF converged after  21 iterations to a total energy of     -5.59821970

BC: Task: GEOMETRYOPTIMIZATION
BC: +++++++++++++++ Summary of boundary conditions ++++++++++++++
BC: |       Component       |     Keyword     |   Periodicity   |
BC: |                       |                 |     X  Y  Z [1] |
BC: |-----------------------------------------------------------|
BC: | Ion-ion               | ion_ion_bc [2]  |     P  P  P     |
BC: | Local pseudopotential | pspot_bc [3]    |     P  P  P     |
BC: | Multigrid solver      | multigrid_bc    |     P  P  P     |
BC: | Smeared ions          | smeared_ion_bc  |     P  P  P     |
BC: | Van der Waals         | vdw_bc          |     P  P  P     |
BC: +++++++++++++++++++++++++++++++++++++++++++++++++++++++++++++
BC: P: Periodic, O: Open.
BC: [1] Not strictly along X, Y, Z but rather along lattice vectors A1, A2, A3.
BC: [2] Also affected by: pbc_correction_cutoff, cutoff_coulomb_type,
BC:     is_smeared_ion_rep, is_implicit_solvent, openbc_ion_ion.
BC: [3] Also affected by: is_smeared_ion_rep, is_implicit_solvent, openbc_pspot.

================================================================================
<<<<<<<<<<<<<<<<<<<< Starting ONETEP Geometry Optimisation >>>>>>>>>>>>>>>>>>>>>
================================================================================

 Geometry Optimisation: output file is "graphite.geom"
 
 
                           -------------------------------
                                     Cell Contents
                           -------------------------------
 
            xxxxxxxxxxxxxxxxxxxxxxxxxxxxxxxxxxxxxxxxxxxxxxxxxxxxxxxxxxxx
            x  Element    Atom      Absolute co-ordinates of atoms     x
            x            Number        x           y           z       x
            x----------------------------------------------------------x
            x    Li        1       16.259570    9.168108   16.310357   x
            x    Li        2       16.264230   27.789415   16.367515   x
            x    Li        3       48.405609   27.807785   16.310954   x
            x    Li        4       48.397368    9.146770   16.368042   x
            x    C         5       41.780254    2.198364    6.426036   x
            x    C         6       49.852691    2.198243    6.425454   x
            x    C         7       57.924870    2.198351    6.432605   x
            x    C         8       12.189729    2.198509    6.424037   x
            x    C         9       20.260308    2.198555    6.427671   x
            x    C        10        4.119287    2.198490    6.429228   x
            x    C        11       28.331434    2.198426    6.431590   x
            x    C        12       36.402908    2.198422    6.429064   x
            x    C        13       44.475109    2.198320    6.423166   x
            x    C        14       52.547528    2.198345    6.426785   x
            x    C        15       60.619208    2.198441    6.431464   x
            x    C        16        1.425231    2.198369    6.431184   x
            x    C        17        9.495549    2.198451    6.426668   x
            x    C        18       17.566010    2.198557    6.426617   x
            x    C        19       25.637102    2.198494    6.432792   x
            x    C        20       33.708394    2.198396    6.431186   x
            x    C        21       29.672716    4.528402    6.431972   x
            x    C        22       37.744256    4.528358    6.429565   x
            x    C        23       45.816393    4.528307    6.424749   x
            x    C        24        8.154635    4.528430    6.424846   x
            x    C        25       53.888946    4.528319    6.429166   x
            x    C        26        0.084168    4.528339    6.430358   x
            x    C        27       16.225026    4.528491    6.422370   x
            x    C        28       24.295867    4.528455    6.429145   x
            x    C        29       32.367152    4.528381    6.430402   x
            x    C        30       40.438985    4.528370    6.425995   x
            x    C        31       48.511394    4.528252    6.424222   x
            x    C        32       56.583588    4.528347    6.430111   x
            x    C        33       61.960405    4.528417    6.432212   x
            x    C        34        5.460437    4.528417    6.428831   x
            x    C        35       13.530670    4.528453    6.422894   x
            x    C        36       21.601488    4.528472    6.427852   x
            x    C        37       25.637055    6.858434    6.429699   x
            x    C        38       33.708470    6.858304    6.431222   x
            x    C        39        4.119414    6.858364    6.428302   x
            x    C        40       41.780203    6.858362    6.425392   x
            x    C        41       49.852784    6.858270    6.426318   x
            x    C        42       12.189771    6.858466    6.419453   x
            x    C        43       20.260396    6.858425    6.422977   x
            x    C        44       28.331415    6.858415    6.430211   x
            x    C        45       36.402995    6.858340    6.429037   x
            x    C        46       44.475077    6.858362    6.423302   x
            x    C        47       52.547645    6.858298    6.426326   x
            x    C        48       57.924844    6.858366    6.431037   x
            x    C        49        1.425279    6.858321    6.430999   x
            x    C        50        9.495568    6.858425    6.422550   x
            x    C        51       60.619183    6.858394    6.430783   x
            x    C        52       17.566063    6.858417    6.422004   x
            x    C        53        0.084129    9.188404    6.429890   x
            x    C        54       21.601546    9.188449    6.423601   x
            x    C        55       29.672707    9.188453    6.431258   x
            x    C        56       37.744271    9.188396    6.428703   x
            x    C        57       45.816414    9.188383    6.424506   x
            x    C        58        8.154614    9.188413    6.421902   x
            x    C        59       16.225037    9.188379    6.418440   x
            x    C        60       24.295829    9.188402    6.425779   x
            x    C        61       32.367135    9.188364    6.430075   x
            x    C        62       40.438968    9.188391    6.424736   x
            x    C        63       48.511415    9.188376    6.424579   x
            x    C        64       53.889048    9.188378    6.427688   x
            x    C        65       56.583607    9.188406    6.428191   x
            x    C        66       61.960386    9.188402    6.431415   x
            x    C        67        5.460517    9.188381    6.427463   x
            x    C        68       13.530766    9.188412    6.418670   x
            x    C        69       17.566014   11.518382    6.419789   x
            x    C        70       25.637023   11.518376    6.428504   x
            x    C        71       33.708434   11.518433    6.430394   x
            x    C        72       41.780254   11.518404    6.425214   x
            x    C        73       60.619223   11.518431    6.429959   x
            x    C        74        4.119439   11.518438    6.427303   x
            x    C        75       12.189784   11.518383    6.417457   x
            x    C        76       20.260360   11.518434    6.420866   x
            x    C        77       28.331403   11.518467    6.429374   x
            x    C        78       36.403006   11.518468    6.428230   x
            x    C        79       44.475090   11.518463    6.423410   x
            x    C        80       49.852752   11.518487    6.426280   x
            x    C        81       52.547649   11.518468    6.425949   x
            x    C        82       57.924864   11.518423    6.430309   x
            x    C        83        1.425281   11.518457    6.430162   x
            x    C        84        9.495570   11.518391    6.420894   x
            x    C        85       13.530683   13.848372    6.419284   x
            x    C        86       21.601450   13.848384    6.424793   x
            x    C        87       29.672754   13.848429    6.430763   x
            x    C        88       37.744273   13.848420    6.428786   x
            x    C        89       56.583550   13.848423    6.429447   x
            x    C        90        0.084184   13.848461    6.429357   x
            x    C        91        8.154627   13.848359    6.422361   x
            x    C        92       16.225030   13.848369    6.418729   x
            x    C        93       24.295814   13.848348    6.426745   x
            x    C        94       32.367167   13.848404    6.429175   x
            x    C        95       40.438988   13.848359    6.425813   x
            x    C        96       48.511403   13.848518    6.424901   x
            x    C        97       45.816420   13.848472    6.425439   x
            x    C        98       53.888916   13.848461    6.428894   x
            x    C        99       61.960433   13.848410    6.431192   x
            x    C       100        5.460454   13.848382    6.427085   x
            x    C       101        9.495564   16.178357    6.423457   x
            x    C       102       17.566000   16.178350    6.422603   x
            x    C       103       25.637085   16.178340    6.430764   x
            x    C       104       33.708408   16.178403    6.430130   x
            x    C       105       52.547514   16.178482    6.427731   x
            x    C       106       60.619242   16.178437    6.430902   x
            x    C       107        4.119335   16.178386    6.427624   x
            x    C       108       12.189739   16.178339    6.420091   x
            x    C       109       20.260283   16.178344    6.424130   x
            x    C       110       44.475122   16.178507    6.424935   x
            x    C       111       28.331426   16.178412    6.430213   x
            x    C       112       36.402906   16.178380    6.428642   x
            x    C       113       41.780284   16.178410    6.427217   x
            x    C       114       49.852705   16.178535    6.427127   x
            x    C       115       57.924870   16.178405    6.432418   x
            x    C       116        1.425290   16.178420    6.430141   x
            x    C       117       13.530689   18.508288    6.422748   x
            x    C       118       21.601475   18.508271    6.429034   x
            x    C       119       29.672761   18.508333    6.431870   x
            x    C       120       48.511373   18.508467    6.425320   x
            x    C       121       56.583518   18.508390    6.431335   x
            x    C       122        0.084144   18.508335    6.429884   x
            x    C       123        8.154544   18.508341    6.425254   x
            x    C       124       40.439009   18.508418    6.427550   x
            x    C       125       16.224992   18.508293    6.422208   x
            x    C       126       24.295901   18.508337    6.430300   x
            x    C       127       32.367118   18.508324    6.429685   x
            x    C       128       37.744262   18.508350    6.429954   x
            x    C       129       45.816484   18.508494    6.426172   x
            x    C       130       53.888818   18.508480    6.430649   x
            x    C       131       61.960448   18.508384    6.432067   x
            x    C       132        5.460366   18.508394    6.428688   x
            x    C       133        9.495468   20.838301    6.425983   x
            x    C       134       17.565997   20.838199    6.425640   x
            x    C       135       25.637126   20.838294    6.432711   x
            x    C       136       44.475188   20.838363    6.424332   x
            x    C       137       52.547458   20.838437    6.426970   x
            x    C       138       36.402932   20.838286    6.429164   x
            x    C       139       60.619192   20.838329    6.431263   x
            x    C       140        4.119310   20.838356    6.428869   x
            x    C       141       12.189722   20.838250    6.423119   x
            x    C       142       20.260364   20.838271    6.426906   x
            x    C       143       28.331468   20.838267    6.431483   x
            x    C       144       33.708400   20.838265    6.430946   x
            x    C       145       41.780365   20.838333    6.427066   x
            x    C       146       49.852638   20.838367    6.426206   x
            x    C       147       57.924793   20.838343    6.432308   x
            x    C       148        1.425231   20.838278    6.430918   x
            x    C       149       61.960397   23.168305    6.431709   x
            x    C       150        5.460369   23.168320    6.429287   x
            x    C       151       13.530636   23.168256    6.424513   x
            x    C       152       40.439060   23.168299    6.425424   x
            x    C       153       21.601611   23.168218    6.429236   x
            x    C       154       32.367140   23.168233    6.430413   x
            x    C       155       48.511401   23.168366    6.422442   x
            x    C       156       56.583406   23.168309    6.428686   x
            x    C       157        0.084125   23.168241    6.430116   x
            x    C       158        8.154482   23.168286    6.425774   x
            x    C       159       16.225009   23.168216    6.424109   x
            x    C       160       24.295944   23.168281    6.430286   x
            x    C       161       29.672763   23.168235    6.432286   x
            x    C       162       37.744303   23.168269    6.429183   x
            x    C       163       45.816478   23.168343    6.423207   x
            x    C       164       53.888801   23.168381    6.427357   x
            x    C       165       57.924694   25.498337    6.429372   x
            x    C       166        1.425243   25.498241    6.430982   x
            x    C       167       36.403047   25.498267    6.428727   x
            x    C       168        9.495379   25.498330    6.425156   x
            x    C       169       17.566123   25.498215    6.426150   x
            x    C       170       44.475177   25.498368    6.419970   x
            x    C       171       52.547469   25.498326    6.422682   x
            x    C       172       60.619079   25.498273    6.430020   x
            x    C       173        4.119340   25.498269    6.428794   x
            x    C       174       12.189624   25.498349    6.423041   x
            x    C       175       20.260534   25.498237    6.426443   x
            x    C       176       25.637168   25.498262    6.431297   x
            x    C       177       33.708489   25.498205    6.431239   x
            x    C       178       41.780333   25.498322    6.423217   x
            x    C       179       28.331470   25.498262    6.430889   x
            x    C       180       49.852682   25.498345    6.422110   x
            x    C       181       32.367157   27.828241    6.430143   x
            x    C       182       53.888818   27.828305    6.423425   x
            x    C       183       61.960329   27.828281    6.431158   x
            x    C       184        5.460352   27.828305    6.428538   x
            x    C       185       13.530605   27.828345    6.424349   x
            x    C       186       40.439094   27.828292    6.422574   x
            x    C       187       48.511386   27.828324    6.418704   x
            x    C       188       56.583410   27.828322    6.425488   x
            x    C       189        0.084129   27.828317    6.429982   x
            x    C       190        8.154473   27.828341    6.424515   x
            x    C       191       16.225058   27.828288    6.424472   x
            x    C       192       21.601703   27.828330    6.427968   x
            x    C       193       24.296020   27.828288    6.428463   x
            x    C       194       29.672703   27.828302    6.431583   x
            x    C       195       37.744381   27.828309    6.428058   x
            x    C       196       45.816467   27.828285    6.419118   x
            x    C       197       49.852667   30.158326    6.419912   x
            x    C       198       57.924747   30.158315    6.428327   x
            x    C       199        1.425248   30.158387    6.430585   x
            x    C       200        9.495409   30.158340    6.424918   x
            x    C       201       28.331472   30.158336    6.430160   x
            x    C       202       36.403025   30.158355    6.427818   x
            x    C       203       44.475179   30.158264    6.417905   x
            x    C       204       52.547486   30.158338    6.420825   x
            x    C       205       60.619111   30.158285    6.429285   x
            x    C       206        4.119331   30.158343    6.428251   x
            x    C       207       12.189605   30.158385    6.423158   x
            x    C       208       17.566110   30.158355    6.426552   x
            x    C       209       20.260508   30.158402    6.426518   x
            x    C       210       25.637176   30.158258    6.430581   x
            x    C       211       33.708462   30.158328    6.430589   x
            x    C       212       41.780361   30.158285    6.421452   x
            x    C       213       45.816431   32.488266    6.419583   x
            x    C       214       53.888814   32.488255    6.424723   x
            x    C       215       61.960416   32.488300    6.430821   x
            x    C       216        5.460366   32.488304    6.428971   x
            x    C       217       24.295950   32.488274    6.429969   x
            x    C       218       32.367142   32.488327    6.429610   x
            x    C       219       40.439058   32.488262    6.422845   x
            x    C       220       48.511381   32.488278    6.418812   x
            x    C       221       56.583442   32.488274    6.426692   x
            x    C       222        0.084153   32.488366    6.429659   x
            x    C       223        8.154488   32.488338    6.425742   x
            x    C       224       16.225009   32.488415    6.425407   x
            x    C       225       13.530607   32.488419    6.425475   x
            x    C       226       21.601607   32.488389    6.429657   x
            x    C       227       29.672739   32.488319    6.431505   x
            x    C       228       37.744315   32.488308    6.427507   x
            x    C       229       41.780329   34.818221    6.423837   x
            x    C       230       49.852657   34.818193    6.422514   x
            x    C       231       57.924798   34.818212    6.430685   x
            x    C       232        1.425260   34.818297    6.430812   x
            x    C       233       20.260355   34.818372    6.428724   x
            x    C       234       28.331458   34.818300    6.431297   x
            x    C       235       36.402896   34.818240    6.427987   x
            x    C       236       44.475151   34.818213    6.420375   x
            x    C       237       52.547456   34.818189    6.423986   x
            x    C       238       12.189690   34.818421    6.424938   x
            x    C       239       60.619213   34.818299    6.430131   x
            x    C       240        4.119354   34.818293    6.429086   x
            x    C       241        9.495430   34.818329    6.427165   x
            x    C       242       17.565985   34.818440    6.427992   x
            x    C       243       25.637077   34.818300    6.432913   x
            x    C       244       33.708362   34.818280    6.430409   x
            x    C       245       45.816452   37.148134    6.422777   x
            x    C       246       53.888833   37.148114    6.428918   x
            x    C       247       61.960444   37.148240    6.431921   x
            x    C       248       16.224985   37.148384    6.425772   x
            x    C       249       24.295884   37.148293    6.431932   x
            x    C       250       32.367093   37.148214    6.430203   x
            x    C       251       40.438960   37.148168    6.425449   x
            x    C       252        8.154495   37.148284    6.427376   x
            x    C       253       48.511360   37.148081    6.422011   x
            x    C       254       56.583522   37.148161    6.430222   x
            x    C       255        0.084131   37.148193    6.430169   x
            x    C       256        5.460350   37.148276    6.430075   x
            x    C       257       13.530702   37.148359    6.426125   x
            x    C       258       21.601486   37.148321    6.431536   x
            x    C       259       29.672729   37.148216    6.432461   x
            x    C       260       37.744214   37.148174    6.428892   x
            x    C       261       18.908241    9.190137   12.472642   x
            x    C       262       13.523500    9.190209   12.475088   x
            x    C       263       14.865979   11.524223   12.481086   x
            x    C       264       17.565624   11.524465   12.476803   x
            x    C       265       51.193868   27.830070   12.480044   x
            x    C       266       45.807948   27.830089   12.466665   x
            x    C       267       47.151233   30.164315   12.477248   x
            x    C       268       49.851406   30.164177   12.480626   x
            x    C       269       14.866020    6.856044   12.478697   x
            x    C       270       17.565806    6.855645   12.474309   x
            x    C       271       21.599919   13.851020   12.512498   x
            x    C       272       18.906668   13.854300   12.504934   x
            x    C       273       13.524432   13.854361   12.504911   x
            x    C       274       14.867101   16.179788   12.509120   x
            x    C       275       17.563837   16.179767   12.507168   x
            x    C       276       47.151307   25.495764   12.474587   x
            x    C       277       49.851620   25.495849   12.478304   x
            x    C       278       53.886909   32.490747   12.513440   x
            x    C       279       51.193099   32.493843   12.506631   x
            x    C       280       45.809652   32.494576   12.503061   x
            x    C       281       47.153030   34.819680   12.508989   x
            x    C       282       49.850393   34.819623   12.507141   x
            x    C       283       14.867254    2.200647   12.505794   x
            x    C       284       17.564020    2.200476   12.503898   x
            x    C       285       22.940931    2.200414   12.530438   x
            x    C       286        9.490363    2.200677   12.528915   x
            x    C       287       63.298758    2.199016   12.541734   x
            x    C       288        6.795975    2.200505   12.543554   x
            x    C       289       31.010527    2.199123   12.541336   x
            x    C       290        1.421019    2.199105   12.539516   x
            x    C       291       25.635577    2.200248   12.542360   x
            x    C       292       33.703587    2.199176   12.540580   x
            x    C       293       39.078869    2.199416   12.541088   x
            x    C       294       55.229265    2.198109   12.527992   x
            x    C       295       57.924158    2.199328   12.539336   x
            x    C       296       47.152881    2.197234   12.503774   x
            x    C       297       41.773927    2.198366   12.526660   x
            x    C       298       49.850798    2.197275   12.501963   x
            x    C       299       18.906884    4.525800   12.502885   x
            x    C       300       13.524486    4.525939   12.502691   x
            x    C       301       10.831578    4.529619   12.515949   x
            x    C       302       26.975924    4.529554   12.537046   x
            x    C       303        5.455484    4.529764   12.534338   x
            x    C       304       21.599946    4.529401   12.514141   x
            x    C       305       59.264903    4.528887   12.538866   x
            x    C       306        2.762109    4.529195   12.538155   x
            x    C       307       35.044470    4.529356   12.543199   x
            x    C       308       61.958201    4.529141   12.541207   x
            x    C       309       29.669545    4.529190   12.537367   x
            x    C       310       43.114708    4.527706   12.512230   x
            x    C       311       51.194297    4.523787   12.503159   x
            x    C       312       37.738016    4.529101   12.537411   x
            x    C       313       53.888765    4.527778   12.511958   x
            x    C       314       45.808904    4.523248   12.500406   x
            x    C       315       22.941306    6.860246   12.508757   x
            x    C       316       63.299109    6.859719   12.546939   x
            x    C       317        6.797016    6.859704   12.519404   x
            x    C       318       31.010478    6.859783   12.543601   x
            x    C       319       39.078852    6.859148   12.525307   x
            x    C       320       57.924231    6.858823   12.524152   x
            x    C       321        1.421172    6.859700   12.541640   x
            x    C       322        9.490191    6.860358   12.506047   x
            x    C       323       25.634551    6.859581   12.519770   x
            x    C       324       33.703362    6.860003   12.545835   x
            x    C       325       55.230723    6.858948   12.510716   x
            x    C       326       47.151008    6.854641   12.484727   x
            x    C       327       41.772313    6.859252   12.507328   x
            x    C       328       49.852345    6.854757   12.487036   x
            x    C       329       51.195455    9.189918   12.493074   x
            x    C       330       59.264967    9.190037   12.528622   x
            x    C       331        2.762562    9.190335   12.534291   x
            x    C       332       26.975455    9.190298   12.519757   x
            x    C       333       35.044295    9.190504   12.541995   x
            x    C       334       43.109466    9.190403   12.498849   x
            x    C       335       53.893368    9.190035   12.502035   x
            x    C       336       61.958307    9.190196   12.540181   x
            x    C       337        5.455891    9.190311   12.516261   x
            x    C       338       21.604572    9.190307   12.491953   x
            x    C       339       29.669143    9.190407   12.533558   x
            x    C       340       37.738018    9.190496   12.527010   x
            x    C       341       45.807147    9.190137   12.482510   x
            x    C       342       10.827675    9.190392   12.493284   x
            x    C       343       47.151237   11.525311   12.493057   x
            x    C       344       55.230642   11.521192   12.513491   x
            x    C       345       63.299000   11.520627   12.546423   x
            x    C       346       31.010561   11.520902   12.541502   x
            x    C       347       39.079068   11.521683   12.526683   x
            x    C       348       49.852310   11.525073   12.494504   x
            x    C       349       57.924141   11.521154   12.525330   x
            x    C       350        1.421078   11.520814   12.539567   x
            x    C       351       33.703479   11.520863   12.545109   x
            x    C       352       41.772519   11.521706   12.510527   x
            x    C       353        6.796829   11.520927   12.516028   x
            x    C       354       22.941396   11.520385   12.506094   x
            x    C       355       25.634687   11.520965   12.516149   x
            x    C       356        9.490019   11.520436   12.503785   x
            x    C       357       45.809481   13.856789   12.507925   x
            x    C       358       43.115141   13.852949   12.517087   x
            x    C       359       51.194095   13.856033   12.510233   x
            x    C       360       59.264620   13.851250   12.539402   x
            x    C       361       35.044818   13.851281   12.542630   x
            x    C       362       53.888653   13.852307   12.516359   x
            x    C       363       61.957916   13.851018   12.540461   x
            x    C       364       29.669800   13.851402   12.531828   x
            x    C       365       37.738366   13.851713   12.538289   x
            x    C       366        2.761859   13.851296   12.532796   x
            x    C       367       26.976202   13.850946   12.530589   x
            x    C       368        5.455218   13.850893   12.528315   x
            x    C       369       10.831389   13.851094   12.514785   x
            x    C       370       47.153187   16.183074   12.508736   x
            x    C       371       55.229240   16.182050   12.531730   x
            x    C       372       41.774297   16.182307   12.530644   x
            x    C       373       49.850883   16.182887   12.506969   x
            x    C       374       39.079363   16.181383   12.545055   x
            x    C       375       63.298416   16.181215   12.541638   x
            x    C       376       31.010929   16.181402   12.537762   x
            x    C       377       57.923991   16.180994   12.542795   x
            x    C       378       33.703995   16.181417   12.540672   x
            x    C       379        6.795582   16.180270   12.539028   x
            x    C       380        1.420681   16.181394   12.536156   x
            x    C       381       25.635755   16.180164   12.537320   x
            x    C       382       22.941160   16.179913   12.528278   x
            x    C       383        9.489889   16.180015   12.527178   x
            x    C       384       51.191468   18.511882   12.513341   x
            x    C       385       45.812291   18.511965   12.512368   x
            x    C       386       43.116543   18.511589   12.526040   x
            x    C       387       53.887323   18.511389   12.523943   x
            x    C       388       35.045192   18.510315   12.545572   x
            x    C       389       59.264574   18.510614   12.548957   x
            x    C       390       37.738305   18.510778   12.547969   x
            x    C       391       61.957512   18.510228   12.543747   x
            x    C       392       29.670212   18.510051   12.540395   x
            x    C       393        2.761302   18.510162   12.542146   x
            x    C       394       26.977173   18.509627   12.544493   x
            x    C       395        5.453965   18.509775   12.543210   x
            x    C       396       10.831009   18.508928   12.524630   x
            x    C       397       18.904622   18.508276   12.512820   x
            x    C       398       21.600074   18.508807   12.522040   x
            x    C       399       13.526323   18.508439   12.511901   x
            x    C       400       47.153151   20.840478   12.505716   x
            x    C       401       49.850545   20.840495   12.503934   x
            x    C       402       55.228271   20.840402   12.530241   x
            x    C       403       41.775053   20.840452   12.528606   x
            x    C       404       31.011232   20.838978   12.541857   x
            x    C       405       39.080037   20.840304   12.543501   x
            x    C       406       63.298019   20.839031   12.541566   x
            x    C       407       33.704269   20.838932   12.539684   x
            x    C       408       57.923114   20.840285   12.542110   x
            x    C       409        1.420309   20.839136   12.540875   x
            x    C       410        6.794752   20.839339   12.541561   x
            x    C       411       22.941827   20.838018   12.527987   x
            x    C       412       25.636597   20.839189   12.539595   x
            x    C       413       14.866819   20.837175   12.503494   x
            x    C       414        9.489235   20.838277   12.527218   x
            x    C       415       17.564190   20.837048   12.501684   x
            x    C       416       51.193320   23.166109   12.504705   x
            x    C       417       45.809707   23.165537   12.500879   x
            x    C       418       43.116388   23.169326   12.514698   x
            x    C       419       59.263467   23.169658   12.536874   x
            x    C       420       37.739193   23.169515   12.534402   x
            x    C       421       53.886930   23.169564   12.515106   x
            x    C       422       26.977299   23.168683   12.538938   x
            x    C       423       35.045459   23.169044   12.538348   x
            x    C       424        2.761058   23.169295   12.543484   x
            x    C       425       29.670558   23.169087   12.541275   x
            x    C       426       61.957026   23.169125   12.537360   x
            x    C       427       10.829769   23.167753   12.513370   x
            x    C       428       18.907747   23.163246   12.501629   x
            x    C       429        5.454092   23.169050   12.537946   x
            x    C       430       21.601594   23.167506   12.511077   x
            x    C       431       13.523483   23.163520   12.501625   x
            x    C       432       55.228221   25.500271   12.509851   x
            x    C       433       31.011574   25.499683   12.546971   x
            x    C       434       39.080897   25.499535   12.519048   x
            x    C       435       63.297879   25.499721   12.543501   x
            x    C       436        6.794784   25.499065   12.526019   x
            x    C       437       25.636788   25.498700   12.524011   x
            x    C       438       33.704381   25.499609   12.541761   x
            x    C       439       41.774439   25.500210   12.504450   x
            x    C       440       57.921833   25.499581   12.519712   x
            x    C       441        1.420031   25.499868   12.545807   x
            x    C       442       22.943620   25.498785   12.509785   x
            x    C       443       14.865419   25.494736   12.487683   x
            x    C       444        9.487839   25.499186   12.508679   x
            x    C       445       17.566227   25.494322   12.483508   x
            x    C       446       18.909416   27.829761   12.487157   x
            x    C       447       26.977311   27.829953   12.528389   x
            x    C       448       35.045829   27.830265   12.534066   x
            x    C       449       59.262917   27.830193   12.519715   x
            x    C       450        2.760867   27.830350   12.542054   x
            x    C       451       10.825292   27.830244   12.501886   x
            x    C       452       21.607028   27.829876   12.499690   x
            x    C       453       29.670768   27.830095   12.540039   x
            x    C       454       37.739679   27.830174   12.515713   x
            x    C       455       53.890707   27.830288   12.495279   x
            x    C       456       61.956584   27.830327   12.533406   x
            x    C       457        5.454126   27.830375   12.527567   x
            x    C       458       13.522355   27.830002   12.488824   x
            x    C       459       43.111537   27.830299   12.489117   x
            x    C       460       14.865676   30.164990   12.495746   x
            x    C       461       22.943532   30.161027   12.512931   x
            x    C       462       31.011472   30.160477   12.546149   x
            x    C       463       63.297979   30.160823   12.541239   x
            x    C       464        6.795009   30.161494   12.527393   x
            x    C       465       17.566212   30.165162   12.491643   x
            x    C       466       25.636650   30.161072   12.525154   x
            x    C       467       33.704284   30.160772   12.539312   x
            x    C       468        1.420105   30.160694   12.544979   x
            x    C       469        9.488043   30.161441   12.511988   x
            x    C       470       39.080691   30.160883   12.515361   x
            x    C       471       55.228348   30.160269   12.507205   x
            x    C       472       57.921990   30.160800   12.516076   x
            x    C       473       41.774210   30.160481   12.502099   x
            x    C       474       13.524012   32.496360   12.508938   x
            x    C       475       10.830143   32.492658   12.517965   x
            x    C       476       18.907536   32.496233   12.509193   x
            x    C       477       26.977018   32.491195   12.539266   x
            x    C       478        2.761376   32.491084   12.542581   x
            x    C       479       21.601546   32.492322   12.515826   x
            x    C       480       29.670341   32.490859   12.540181   x
            x    C       481       61.957300   32.491297   12.531424   x
            x    C       482        5.454506   32.491551   12.538628   x
            x    C       483       35.045175   32.491305   12.532390   x
            x    C       484       59.263682   32.490702   12.530234   x
            x    C       485       37.738948   32.490938   12.527756   x
            x    C       486       43.116148   32.491190   12.513171   x
            x    C       487       14.867088   34.822898   12.508524   x
            x    C       488       22.941759   34.821883   12.531842   x
            x    C       489        9.489555   34.822178   12.530755   x
            x    C       490       17.564256   34.822771   12.506833   x
            x    C       491        6.795170   34.821258   12.545212   x
            x    C       492       31.010831   34.821105   12.541300   x
            x    C       493       63.298442   34.821222   12.537397   x
            x    C       494       25.636425   34.820821   12.542955   x
            x    C       495        1.420821   34.821260   12.540347   x
            x    C       496       39.079612   34.820218   12.538289   x
            x    C       497       33.703884   34.821309   12.535657   x
            x    C       498       57.923315   34.819988   12.536917   x
            x    C       499       55.228541   34.819738   12.528187   x
            x    C       500       41.774543   34.819982   12.526305   x
            x    C       501       18.904663   37.151651   12.513477   x
            x    C       502       13.526629   37.151831   12.512274   x
            x    C       503       10.831389   37.151451   12.526224   x
            x    C       504       21.600006   37.151184   12.524069   x
            x    C       505        2.761806   37.150228   12.545366   x
            x    C       506       26.976933   37.150366   12.549046   x
            x    C       507        5.454428   37.150685   12.547912   x
            x    C       508       29.669932   37.150077   12.543535   x
            x    C       509       61.957793   37.149862   12.540041   x
            x    C       510       35.044678   37.149971   12.541753   x
            x    C       511       59.264824   37.149480   12.543996   x
            x    C       512       37.737808   37.149682   12.542738   x
            x    C       513       43.116156   37.148851   12.524075   x
            x    C       514       51.191456   37.148216   12.512806   x
            x    C       515       53.887381   37.148635   12.522042   x
            x    C       516       45.811952   37.148297   12.511945   x
            xxxxxxxxxxxxxxxxxxxxxxxxxxxxxxxxxxxxxxxxxxxxxxxxxxxxxxxxxxxx
 

Determining parallel strategy ...
... using space-filling curve
... NGWF load balancing: max     20;  min     16;  average     16
... Projector load balancing: max      5;  min      4;  average      4
... done
Calculating Ewald energy ...
              Ewald: real-space energy =        29769.522677
        Ewald: reciprocal-space energy =       126826.297299
         Ewald: (sum_charge)**2 energy =         3439.369198
         Ewald: (sum_charge**2) energy =          302.965716
                          Ewald energy =       152853.485061
======================= Empirical dispersion information =======================
Model : Grimme D2
Dispersion Correction Energy: -0.17686990E+01 Hartree
================================================================================
Basis initialisation ...... NGWF spheres initialised
... Projector spheres initialised
... NGWF tight boxes initialised
... Tight-boxes gathered
... NGWF basis size (local,global):        258231     32611772
... Nonlocal pseudopotential projector initialisation
... done

========================== Sparse matrix information ===========================
                        Overlap matrix filling:  29.55%
                        Density kernel filling: 100.00% (known to be dense)
              NGWF-Proj overlap matrix filling:   7.26%
                    Hamiltonian matrix filling:  30.70%
                  NGWF diagonal matrix filling:   0.19%
                             KS matrix filling: 100.00% 
                           KSKS matrix filling: 100.00% 
================================================================================

Sparse matrix initialisation ... done

Generating smeared ion density ... done
Smeared ion self correction:     -4103.121354
Smeared ion non-self correction: -152868.715521
IS: Initialising Boltzmann terms in implicit solvation...
----------------------------------------------------------
|           Boltzmann ions in implicit solvent:          |
+--------------------------------------------------------+
|       Name | Charge |  Conc. (mol/L)  |  Conc. (a.u.)  |
|         Li |  1.000 |    0.10000E+01  |   0.89239E-04  |
|        PF6 | -1.000 |    0.10000E+01  |   0.89239E-04  |
----------------------------------------------------------

IS: Generating smoothed hard-core steric potential ...
IS: - smearing:        0.40000E+00 bohr.
---------------------------------------------------------------
|      Atomic hard-core steric potential radial cut-offs      |
+-------------------------------------------------------------+
|   Species |   Symbol |            Radial cut-off (bohr)     |
|           |          |     solute      solvent        total |
|         1 |       Li |   3.558867 +   3.000000 =   6.558867 |
|         2 |        C |   3.308495 +   3.000000 =   6.308495 |
---------------------------------------------------------------

IS: Debye length is    6.18 bohr. PB equation variant: FULL. Use_fas: F.
IS: Exp_cap:   50.00. Steric pot: SMOOTHED SPHERES.
NGWF initialisation ... done
============ Calculation of NGWF S^-1 using Hotelling algorithm ================ 
         Iteration  |  Frobenius norm and Maximum abs value    (of I-S*S_n^-1)   
               1       0.44160254E+02     0.98393663E+00
               2       0.43083542E+02     0.96818723E+00
               3       0.41429198E+02     0.93756947E+00
               4       0.39247135E+02     0.87954348E+00
               5       0.36659776E+02     0.77503462E+00
               6       0.33706602E+02     0.69494928E+00
               7       0.30636130E+02     0.65109766E+00
               8       0.27682833E+02     0.61312787E+00
               9       0.24579276E+02     0.57043957E+00
              10       0.20736779E+02     0.50508936E+00
              11       0.15743784E+02     0.40105343E+00
              12       0.98827073E+01     0.25822768E+00
              13       0.44611367E+01     0.11431931E+00
              14       0.10752758E+01     0.25449996E-01
              15       0.71745117E-01     0.15097604E-02
              16       0.37175589E-03     0.65313886E-05
              17       0.13609746E-07     0.16412893E-09
              18       0.61299058E-13     0.39968029E-14
================================================================================
Calculating core density ... ... done

Generating solute cavity for implicit solvation ... done
MG DL_MG: Calling solver with defect correction order = 8
MG DL_MG: Solver finished
MG Fixed charge (1/2 \int rho_f phi dr) energy term:                 617.684634
MG Mobile charge (1/2 \int rho_m phi dr) energy term:                 -0.000000
MG Osmotic pressure (-kT \int dr \sum_i c_i(r)) energy term:          -0.068923
MG Mobile ion acc. corr. (\int dr \sum_i c_i(r) * V_steric(r)):        0.000179
MG Ion atmosph. rearr. (kT \int dr \sum_i c_i(r)*ln(c_i(r)/c^0):      -0.000178
MG Chemical potential (-\sum_i \mu_i \int dr c_i(r)) energy term:     -0.000000
MG                                                               --------------
MG Mean-field contribution to grand potential                        617.615712

MG Check from alternate expression:
MG Fixed charge (1/2 \int rho_f phi dr) energy term:                 617.684634
MG Minus mobile charge (-1/2 \int rho_m phi dr) energy term:           0.000000
MG -kTV\Gamma \sum_i c^bulk_i(r) (osmotic pressure) energy term:      -0.068923
MG                                                               --------------
MG Mean-field contribution to grand potential:                       617.615712

IS: MG box volume:     455016.600 a0^3. Accessible fraction: 0.898860. PBC.
IS: Charge neutralisation scheme: COUNTERIONS_AUTO.

+--------------------------- Chemical potential --------------------------+
|   # | Name | Bulk conc. |    mu_ideal   |   mu_excess   |    mu_total   |
|-------------------------------------------------------------------------|
|   1 |   Li |  1.0000053 |   0.000000005 |  -0.000000005 |   0.000000000 |
|   2 |  PF6 |  1.0000053 |   0.000000005 |  -0.000000005 |  -0.000000000 |
|-------------------------------------------------------------------------|

+----------------- Boltzmann ion concentration and charge -----------------+
|   # | Name | Bulk conc. | Average conc. | Neutr. ratio |    Total charge |
|--------------------------------------------------------------------------|
|   1 |   Li |  1.0000053 |   1.000005310 | 0.912194E+08 |    36.498573126 | 
|   2 |  PF6 |  1.0000053 |   1.000005310 | -.912193E+08 |   -36.498573126 | 
+--------------------------------------------------------------------------+
                                                    total:    -0.000000000*

+---- Concentration difference from bulk value on simcell faces (mol/L) ---+
|   # | Name | Face | Bulk conc. | Actual conc. |  Difference |  RMS diff. |
|--------------------------------------------------------------------------|
+         There are no fully electrolyte-accessible simcell faces.         +
+--------------------------------------------------------------------------+
Up spin density kernel initialisation ...... done
Down spin density kernel initialisation ...... done

Writing density kernel to file "graphite.dkn" ... done

>>> Optimising kernel for current NGWFs:

--------------------------- Ensemble-DFT optimisation --------------------------
Running ScaLAPACK on  128 processor(s).
(P)DSYGVX in subroutine dense_eigensolve returned info=    2
 ifail= 2*0
 iclustr= 1471,  1502
 gap= 1.20673735833317738E-5,  1.28908289873659205E-5
(P)DSYGVX in subroutine dense_eigensolve returned info=    2
 ifail= 2*0
 iclustr= 1471,  1502
 gap= 1.20671538289246924E-5,  1.28908289873136196E-5

Reusing previously generated solute cavity.
MG DL_MG: Calling solver with defect correction order = 8
MG DL_MG: Solver finished
MG Fixed charge (1/2 \int rho_f phi dr) energy term:                 586.607478
MG Mobile charge (1/2 \int rho_m phi dr) energy term:                 -0.228270
MG Osmotic pressure (-kT \int dr \sum_i c_i(r)) energy term:          -0.173195
MG Mobile ion acc. corr. (\int dr \sum_i c_i(r) * V_steric(r)):        0.063068
MG Ion atmosph. rearr. (kT \int dr \sum_i c_i(r)*ln(c_i(r)/c^0):       0.466564
MG Chemical potential (-\sum_i \mu_i \int dr c_i(r)) energy term:     -0.073093
MG                                                               --------------
MG Mean-field contribution to grand potential                        586.662553

MG Check from alternate expression:
MG Fixed charge (1/2 \int rho_f phi dr) energy term:                 586.607478
MG Minus mobile charge (-1/2 \int rho_m phi dr) energy term:           0.228270
MG -kTV\Gamma \sum_i c^bulk_i(r) (osmotic pressure) energy term:      -0.173195
MG                                                               --------------
MG Mean-field contribution to grand potential:                       586.662554

IS: MG box volume:     455016.600 a0^3. Accessible fraction: 0.898860. PBC.
IS: Charge neutralisation scheme: COUNTERIONS_AUTO.

+--------------------------- Chemical potential --------------------------+
|   # | Name | Bulk conc. |    mu_ideal   |   mu_excess   |    mu_total   |
|-------------------------------------------------------------------------|
|   1 |   Li |  4.3919115 |   0.001397171 |  -0.000864282 |   0.000532889 |
|   2 |  PF6 |  0.6338723 |  -0.000430461 |  -0.000102428 |  -0.000532889 |
|-------------------------------------------------------------------------|

+----------------- Boltzmann ion concentration and charge -----------------+
|   # | Name | Bulk conc. | Average conc. | Neutr. ratio |    Total charge |
|--------------------------------------------------------------------------|
|   1 |   Li |  4.3919115 |   4.391927172 |     0.902575 |   160.298223883 | 
|   2 |  PF6 |  0.6338723 |   0.633872459 |     0.097425 |   -23.135317467 | 
+--------------------------------------------------------------------------+
                                                    total:   137.162906416*

+---- Concentration difference from bulk value on simcell faces (mol/L) ---+
|   # | Name | Face | Bulk conc. | Actual conc. |  Difference |  RMS diff. |
|--------------------------------------------------------------------------|
+         There are no fully electrolyte-accessible simcell faces.         +
+--------------------------------------------------------------------------+

Reusing previously generated solute cavity.
MG DL_MG: Calling solver with defect correction order = 8
MG DL_MG: Solver finished
MG Fixed charge (1/2 \int rho_f phi dr) energy term:                 619.225122
MG Mobile charge (1/2 \int rho_m phi dr) energy term:                 -0.000553
MG Osmotic pressure (-kT \int dr \sum_i c_i(r)) energy term:          -0.069457
MG Mobile ion acc. corr. (\int dr \sum_i c_i(r) * V_steric(r)):        0.000230
MG Ion atmosph. rearr. (kT \int dr \sum_i c_i(r)*ln(c_i(r)/c^0):       0.000876
MG Chemical potential (-\sum_i \mu_i \int dr c_i(r)) energy term:      0.000000
MG                                                               --------------
MG Mean-field contribution to grand potential                        619.156218

MG Check from alternate expression:
MG Fixed charge (1/2 \int rho_f phi dr) energy term:                 619.225122
MG Minus mobile charge (-1/2 \int rho_m phi dr) energy term:           0.000553
MG -kTV\Gamma \sum_i c^bulk_i(r) (osmotic pressure) energy term:      -0.069457
MG                                                               --------------
MG Mean-field contribution to grand potential:                       619.156218

IS: MG box volume:     455016.600 a0^3. Accessible fraction: 0.898860. PBC.
IS: Charge neutralisation scheme: COUNTERIONS_AUTO.

+--------------------------- Chemical potential --------------------------+
|   # | Name | Bulk conc. |    mu_ideal   |   mu_excess   |    mu_total   |
|-------------------------------------------------------------------------|
|   1 |   Li |  1.0077511 |   0.000007290 |  -0.000006659 |   0.000000631 |
|   2 |  PF6 |  1.0077511 |   0.000007290 |  -0.000007922 |  -0.000000631 |
|-------------------------------------------------------------------------|

+----------------- Boltzmann ion concentration and charge -----------------+
|   # | Name | Bulk conc. | Average conc. | Neutr. ratio |    Total charge |
|--------------------------------------------------------------------------|
|   1 |   Li |  1.0077511 |   1.007751117 | -.125593E+13 |    36.781282544 | 
|   2 |  PF6 |  1.0077511 |   1.007751122 | 0.125593E+13 |   -36.781282726 | 
+--------------------------------------------------------------------------+
                                                    total:    -0.000000182*

+---- Concentration difference from bulk value on simcell faces (mol/L) ---+
|   # | Name | Face | Bulk conc. | Actual conc. |  Difference |  RMS diff. |
|--------------------------------------------------------------------------|
+         There are no fully electrolyte-accessible simcell faces.         +
+--------------------------------------------------------------------------+

--------------------------------------------------------------------------------
  Iter                              Commutator    Grand pot.(L=E-TS-muN)  DeltaL
#    0                          0.000144804194   -2656.68676373421249  -2.66E+03

Step                       =       0.381966011250
Energy (E)                 =   -2983.567085496092
Entropy (-TS)              =      -0.159265827831
Chemical potential (-muN)  =     327.039587589711
Grand potential(L=E-TS-muN)=   -2656.686763734212
Est. 0K Energy 0.5*(E+L)   =   -2820.126924615152
Charge on quantum system   =    -137.162339261847
Residual Non-orthogonality =      -0.000000000000

Spin          Integrated_Ne            Fermi_level   Delta_Integrated_Ne
   1      1030.000000000000        -0.158757081354              0.00E+00
   2      1030.000000000000        -0.158757081354              0.00E+00

                           Spin 1           |                 Spin 2           |
     Orb |    H-eigenvalues     Occupancies |    H-eigenvalues     Occupancies |
       1 |    -1.8382621577    1.0000000000 |    -1.8382621577    1.0000000000 | 
                          ------                             ------
    1092 |    -0.1612365797    0.6625560708 |    -0.1612365797    0.6625560711 | 
    1093 |    -0.1604799326    0.6151024570 |    -0.1604799326    0.6151024574 | 
    1094 |    -0.1603498734    0.6066902183 |    -0.1603498734    0.6066902187 | 
    1095 |    -0.1599480693    0.5803193036 |    -0.1599480693    0.5803193040 | 
    1096 |    -0.1593640752    0.5411992379 |    -0.1593640752    0.5411992383 | 
                         Fermi level         |             Fermi level        
    1097 |    -0.1575647203    0.4195896993 |    -0.1575647203    0.4195896997 | 
    1098 |    -0.1571711147    0.3937530479 |    -0.1571711147    0.3937530483 | 
    1099 |    -0.1566387801    0.3597569709 |    -0.1566387801    0.3597569712 | 
    1100 |    -0.1564831773    0.3500633474 |    -0.1564831773    0.3500633478 | 
    1101 |    -0.1563605176    0.3425078657 |    -0.1563605176    0.3425078661 | 
                          ------                             ------
    2068 |     0.6065742924    0.0000000000 |     0.6065742924    0.0000000000 | 

                            |  Abs_value |  Threshold | Converged
     Delta_Free_energy/atom |   5.15E+00 |   1.00E-06 |        No
     Delta_Energy/atom      |   5.78E+00 |   1.00E-04 |        No
     Delta_Entropy/atom     |   3.09E-04 |   1.00E-04 |        No
     Commutator             |   1.45E-04 |   1.00E-05 |        No
     Delta_Int_Ne/atom      |   0.00E+00 |   1.00E-06 |       Yes

  Line search of the free energy minimum:
  Step_type        Step             Free_energy   Predicted_free_energy
.   Initial    0.000000    -2656.68676373421249
(P)DSYGVX in subroutine dense_eigensolve returned info=    2
 ifail= 2*0
 iclustr= 520,  550
 gap= 4.75869334408918031E-5,  3.9674241701203553E-5
(P)DSYGVX in subroutine dense_eigensolve returned info=    2
 ifail= 2*0
 iclustr= 520,  550
 gap= 4.75869334305854247E-5,  3.96742034320878459E-5

Reusing previously generated solute cavity.
MG DL_MG: Calling solver with defect correction order = 8
MG DL_MG: Solver finished
MG Fixed charge (1/2 \int rho_f phi dr) energy term:                 605.928247
MG Mobile charge (1/2 \int rho_m phi dr) energy term:                 -0.329473
MG Osmotic pressure (-kT \int dr \sum_i c_i(r)) energy term:          -0.208806
MG Mobile ion acc. corr. (\int dr \sum_i c_i(r) * V_steric(r)):        0.112302
MG Ion atmosph. rearr. (kT \int dr \sum_i c_i(r)*ln(c_i(r)/c^0):       0.664484
MG Chemical potential (-\sum_i \mu_i \int dr c_i(r)) energy term:     -0.117840
MG                                                               --------------
MG Mean-field contribution to grand potential                        606.048914

MG Check from alternate expression:
MG Fixed charge (1/2 \int rho_f phi dr) energy term:                 605.928247
MG Minus mobile charge (-1/2 \int rho_m phi dr) energy term:           0.329473
MG -kTV\Gamma \sum_i c^bulk_i(r) (osmotic pressure) energy term:      -0.208805
MG                                                               --------------
[...]
 C    63 -- C    64       -0.08     -0.00      5.38394
 C   214 -- C   220       -0.08     -0.00      5.38394
 C    23 -- C    30       -0.08     -0.00      5.38396
 C    95 -- C    97       -0.08     -0.00      5.38397
 C   155 -- C   164       -0.08     -0.00      5.38398
 C   213 -- C   219       -0.08     -0.00      5.38399
 C   152 -- C   163       -0.08     -0.00      5.38403
 C   124 -- C   129       -0.08     -0.00      5.38403
 C   182 -- C   187       -0.08     -0.00      5.38407
 C   245 -- C   251       -0.08     -0.00      5.38408
 C   276 -- C   439       -0.08     -0.00      5.38412
 C   110 -- C   114       -0.08     -0.00      5.38422
 C   325 -- C   328       -0.08     -0.00      5.38423
 C     6 -- C    13       -0.08     -0.00      5.38424
 C   230 -- C   236       -0.08     -0.00      5.38426
 C   136 -- C   146       -0.08     -0.00      5.38428
 C   267 -- C   473       -0.08     -0.00      5.38428
 C    41 -- C    46       -0.08     -0.00      5.38441
 C    79 -- C    80       -0.08     -0.00      5.38441
 C   344 -- C   348       -0.08     -0.00      5.38443
 C   170 -- C   180       -0.08     -0.00      5.38458
 C   197 -- C   203       -0.08     -0.00      5.38461
 C   277 -- C   432       -0.08     -0.00      5.38488
 C   268 -- C   471       -0.08     -0.00      5.38499
 C   487 -- C   489       -0.08     -0.00      5.38564
 C   413 -- C   414       -0.08     -0.00      5.38592
 C   274 -- C   383       -0.08     -0.00      5.38599
 C   283 -- C   286       -0.08     -0.00      5.38613
 C   488 -- C   490       -0.08     -0.00      5.38644
 C   411 -- C   415       -0.08     -0.00      5.38660
 C   370 -- C   372       -0.08     -0.00      5.38666
 C   284 -- C   285       -0.08     -0.00      5.38673
 C   275 -- C   382       -0.08     -0.00      5.38676
 C   296 -- C   297       -0.08     -0.00      5.38688
 C   281 -- C   500       -0.08     -0.00      5.38691
 C   400 -- C   403       -0.08     -0.00      5.38699
 C   371 -- C   373       -0.08     -0.00      5.38707
 C   294 -- C   298       -0.08     -0.00      5.38730
 C   401 -- C   402       -0.08     -0.00      5.38731
 C   282 -- C   499       -0.08     -0.00      5.38740
 C   501 -- C   502       -0.08     -0.00      5.38820
 C   397 -- C   399       -0.08     -0.00      5.38831
 C   384 -- C   385       -0.08     -0.00      5.38902
 C   514 -- C   516       -0.08     -0.00      5.38920
 C   451 -- C   474       -0.08      0.00      5.39459
 C   335 -- C   359       -0.08      0.00      5.39469
 C   431 -- C   451       -0.08      0.00      5.39490
 C   311 -- C   335       -0.08      0.00      5.39504
 C   452 -- C   476       -0.08      0.00      5.39565
 C   334 -- C   357       -0.08      0.00      5.39566
 C   428 -- C   452       -0.08      0.00      5.39587
 C   273 -- C   342       -0.08      0.00      5.39597
 C   314 -- C   334       -0.08      0.00      5.39601
 C   279 -- C   455       -0.08      0.00      5.39620
 C   300 -- C   342       -0.08      0.00      5.39632
 C   416 -- C   455       -0.08      0.00      5.39635
 C   272 -- C   338       -0.08      0.00      5.39697
 C   299 -- C   338       -0.08      0.00      5.39713
 C   280 -- C   459       -0.08      0.00      5.39715
 C   417 -- C   459       -0.08      0.00      5.39738
 C   474 -- C   476       -0.08     -0.00      5.39957
 C   428 -- C   431       -0.08     -0.00      5.40010
 C   357 -- C   359       -0.08     -0.00      5.40035
 C   272 -- C   273       -0.08     -0.00      5.40068
 C   299 -- C   300       -0.08     -0.00      5.40092
 C   311 -- C   314       -0.08     -0.00      5.40100
 C   279 -- C   280       -0.08     -0.00      5.40149
 C   416 -- C   417       -0.08     -0.00      5.40168
 C   443 -- C   465       -0.07      0.00      5.40473
 C   445 -- C   460       -0.07      0.00      5.40474
 C   328 -- C   343       -0.07      0.00      5.40485
 C   326 -- C   348       -0.07      0.00      5.40491
 C   264 -- C   269       -0.07      0.00      5.40634
 C   263 -- C   270       -0.07      0.00      5.40640
 C   267 -- C   277       -0.07      0.00      5.40641
 C   268 -- C   276       -0.07      0.00      5.40641
 C   446 -- C   458       -0.07     -0.00      5.41004
 C   329 -- C   341       -0.07     -0.00      5.41081
 C   261 -- C   262       -0.07     -0.00      5.41176
 C   265 -- C   266       -0.07     -0.00      5.41263
=============================================================


============== Orbital energy and occupancy information for spin 1 =============

      Total number of orbitals:    2068
        Occupancy sum (kernel):    1027.946197615
   Occupancy sum (eigenvalues):    1027.946197615
                 HOMO-LUMO gap:       0.027274381 Eh
                 Mid-gap level:      -0.156686065 Eh

                        Orbital | Energy (Eh) | Occupancy
                            1    -1.936577790   1.0000000
                        .......   ...........   .........
                         1019    -0.192363778   0.9998924
                         1020    -0.191966437   0.9998801
                         1021    -0.188830265   0.9997209
                         1022    -0.188362219   0.9996828
                         1023    -0.187678353   0.9996197
                         1024    -0.187442960   0.9995887
                         1025    -0.187248568   0.9995669
                         1026    -0.187236702   0.9995703
                         1027    -0.170654913   0.9622049
                         1028    -0.170323256   0.9587723
                        ....... -- gap at 0K -- .........
                         1029    -0.143048875   0.0137481
                         1030    -0.142804467   0.0128705
                         1031    -0.127552181   0.0002048
                         1032    -0.127142780   0.0001834
                         1033    -0.126427391   0.0001506
                         1034    -0.125824845   0.0001280
                         1035    -0.125546325   0.0001201
                         1036    -0.125490882   0.0001183
                         1037    -0.123847164   0.0000775
                         1038    -0.123247195   0.0000661
                        .......   ...........   .........
                         2068     0.759867211   0.0000000

================================================================================

============== Orbital energy and occupancy information for spin 2 =============

      Total number of orbitals:    2068
        Occupancy sum (kernel):    1027.946197622
   Occupancy sum (eigenvalues):    1027.946197622
                 HOMO-LUMO gap:       0.027274381 Eh
                 Mid-gap level:      -0.156686065 Eh

                        Orbital | Energy (Eh) | Occupancy
                            1    -1.936577790   1.0000000
                        .......   ...........   .........
                         1019    -0.192363778   0.9998924
                         1020    -0.191966437   0.9998801
                         1021    -0.188830265   0.9997209
                         1022    -0.188362219   0.9996828
                         1023    -0.187678353   0.9996197
                         1024    -0.187442960   0.9995887
                         1025    -0.187248568   0.9995669
                         1026    -0.187236702   0.9995703
                         1027    -0.170654913   0.9622049
                         1028    -0.170323256   0.9587723
                        ....... -- gap at 0K -- .........
                         1029    -0.143048875   0.0137481
                         1030    -0.142804467   0.0128705
                         1031    -0.127552181   0.0002048
                         1032    -0.127142780   0.0001834
                         1033    -0.126427391   0.0001506
                         1034    -0.125824845   0.0001280
                         1035    -0.125546325   0.0001201
                         1036    -0.125490882   0.0001183
                         1037    -0.123847164   0.0000775
                         1038    -0.123247195   0.0000661
                        .......   ...........   .........
                         2068     0.759867211   0.0000000

================================================================================

===================== Writing canonical molecular orbitals =====================
    Spin 1
| Orbital  Energy (eV)  Norm     |
| HOMO-5   -5.10698784  1.000000 | 
| HOMO-4   -5.10058248  1.000000 | 
| HOMO-3   -5.09529280  1.000000 | 
| HOMO-2   -5.09496990  1.000000 | 
| HOMO-1   -4.64375647  1.000000 | 
| HOMO     -4.63473162  1.000000 | 
| LUMO     -3.89255795  1.000000 | 
| LUMO+1   -3.88590727  1.000000 | 
| LUMO+2   -3.47087146  1.000000 | 
| LUMO+3   -3.45973110  1.000000 | 
| LUMO+4   -3.44026436  1.000000 | 
| LUMO+5   -3.42386824  1.000000 | 
================================================================================

===================== Writing canonical molecular orbitals =====================
    Spin 2
| Orbital  Energy (eV)  Norm     |
| HOMO-5   -5.10698784  1.000000 | 
| HOMO-4   -5.10058248  1.000000 | 
| HOMO-3   -5.09529280  1.000000 | 
| HOMO-2   -5.09496990  1.000000 | 
| HOMO-1   -4.64375647  1.000000 | 
| HOMO     -4.63473162  1.000000 | 
| LUMO     -3.89255795  1.000000 | 
| LUMO+1   -3.88590727  1.000000 | 
| LUMO+2   -3.47087146  1.000000 | 
| LUMO+3   -3.45973110  1.000000 | 
| LUMO+4   -3.44026436  1.000000 | 
| LUMO+5   -3.42386824  1.000000 | 
================================================================================
 
=============== Density of States (DOS) calculation for UP spin ================
Writing "graphite_UP_DOS.txt" ... done
================================================================================
 
============== Density of States (DOS) calculation for DOWN spin ===============
Writing "graphite_DN_DOS.txt" ... done
================================================================================
 
Writing bands to file "graphite.val_bands" ... done

IS: Calculating electrolyte contribution to the atomic forces ...
================================================================================
 
***********************************************************
********** Summary of Forces (values in Eh/a) *************
*                                                         *
* ---------------------- Minimum ------------------------ *
* Atom:        54, |F|min =    0.00000777                 *
* Components:     Fx|min       Fy|min       Fz|min        *
*              -0.00000415  -0.00000159  -0.00000637      *
*                                                         *
* ---------------------- Maximum ------------------------ *
* Atom:         4, |F|max =    0.00092564                 *
* Components:     Fx|max       Fy|max       Fz|max        *
*               0.00075190   0.00038185  -0.00038162      *
*                                                         *
* ---------------- Root Mean Square Force --------------- *
*                  |F|rms =    0.00019341                 *
* Components:     Fx|rms       Fy|rms       Fz|rms        *
*               0.00016928   0.00007824   0.00005128      *
***********************************************************
 

                                                      hartree           kcal/mol
IS: NB: Energy of pure electrolyte:         -0.07774482040315         -48.785610

------------------------------ TIMING INFORMATION ------------------------------
AVERAGE TIME:   19680.351s on    128 proc(s)                                    
TOTAL TIME:     19680.360s on    128 proc(s)                                    
================= AVERAGE TIMINGS FROM ALL PROCS (CUMULATIVE) ==================
|| TAG                                    #calls    cpu time   %total  Gflops ||
|| linalg_invert_sym_matrix             :     4        0.00s   0.000%  ------ || (1 procs only)
|| onetep.F90 final imbalance           :     1        0.00s   0.000%  ------ ||
|| density_fftbox_interp_mult_imbal     : 30040        0.00s   0.000%  ------ ||
|| sparse_set_to_garbage                :   536        0.02s   0.000%  ------ ||
|| onetep.F90 main loop imbalance       :     1        0.02s   0.000%  ------ ||
|| ewald_calculate_forces_realspace     :    14        0.06s   0.000%  ------ ||
|| ngwfs_initialise_from_radial         :     2        0.06s   0.000%  ------ ||
|| vdwcorrection_calculate_forces       :    14        0.07s   0.000%  ------ ||
|| vdwcorrection_calculate_energy       :    14        0.16s   0.001%  ------ ||
|| basis_extract_function_from_box      :  2972        0.21s   0.001%  ------ ||
|| pseudopotentials_core_density        :    14        0.27s   0.001%  ------ ||
|| pseudopotentials_local_on_grid       :    14        0.27s   0.001%  ------ ||
|| sparse_spam3toblacs_real_fast_imbal  :  2762        0.36s   0.002%  ------ ||
|| parallel_prepare_fd_halos_alloc      : 67269        0.37s   0.002%  ------ ||
|| restart_hamiltonian_read             :    12        0.48s   0.002%  ------ ||
|| pseudopotentials_nonlocal_mat        :    74        0.59s   0.003%  ------ ||
|| parallel_prepare_fd_halos_request    : 67269        0.63s   0.003%  ------ ||
|| sparse_blacstospam3_real_fast_imbal  :  2696        0.82s   0.004%  ------ ||
|| smeared_ion_generate_potential_PBC   :    14        1.64s   0.008%  ------ ||
|| restart_hamiltonian_write            :    43        1.82s   0.009%  ------ ||
|| pseudo_make_structure_factor         :    14        1.85s   0.009%  ------ ||
|| sparse_spam3toblacs_real_fast_B2     : 353.5k       1.95s   0.010%  ------ ||
|| energy_and_force_init_cell           :     1        2.36s   0.012%  ------ ||
|| parallel_prepare_fd_halos_satisfy    : 67269        3.18s   0.016%  ------ ||
|| eigenstates_calculate                :     1        3.90s   0.020%  ------ ||
|| sparse_init                          :    14        3.98s   0.020%  ------ ||
|| ngwf_gradient_coeffs                 :    43        6.35s   0.032%  ------ ||
|| pseudo_local_calculate_forces        :    14        6.70s   0.034%  ------ ||
|| ewald_calculate_energy               :    14        7.27s   0.037%  ------ ||
|| restart_kernel_write                 :    57        7.31s   0.037%  ------ ||
|| integrals_grad_spam3                 :    14        8.53s   0.043%  ------ ||
|| nonsc_forces_ngwfs_calc              :    14        8.59s   0.044%  ------ ||
|| density_init_guess_real              :    14        8.80s   0.045%  ------ ||
|| sparse_embed_hotelling_invert_embed  :    74        9.82s   0.050%  ------ ||
|| pseudo_nlcc_calculate_forces         :    14       10.82s   0.055%  ------ ||
|| projectors_func_grad_ovlp_box_spam3  :    42       11.98s   0.061%  ------ ||
|| pseudo_nl_calculate_forces           :    14       13.43s   0.068%  ------ ||
|| restart_ngwfs_tightbox_input         :    12       16.05s   0.082%  ------ ||
|| fourier_filter_cell                  :   620       16.97s   0.086% 203.610 ||
|| sparse_trace                         : 10376       17.47s   0.089%  ------ ||
|| projectors_func_ovlp_box_spam3       :    74       19.77s   0.100%  ------ ||
|| ewald_calculate_forces_recipspace    :    14       23.55s   0.120%  ------ ||
|| ewald_calculate_forces               :    14       23.78s   0.121%  ------ ||
|| boltzmann_init_steric_pot            :    14       24.15s   0.123%  ------ ||
|| properties_calculate                 :     1       25.97s   0.132%  ------ ||
|| parallel_prepare_fd_halos_clear      : 67269       27.20s   0.138%  ------ ||
|| projectors_init_fftbox_recip         :   288       27.91s   0.142%  ------ ||
|| parallel_prepare_fd_halos_comms_imbal: 67269       28.02s   0.142%  ------ ||
|| basis_copy_function_to_box           : 35236       33.52s   0.170%  ------ ||
|| fourier_apply_box_pair               :  3491       33.64s   0.171%  1.675k ||
|| parallel_prepare_fd_halos_comms_wait : 67269       45.81s   0.233%  ------ ||
|| function_ops_brappd_ketppd_spam3     :   134       46.31s   0.235%  ------ ||
|| integrals_kinetic_spam3              :    74       67.84s   0.345%  ------ ||
|| fourier_interpolate_cell             :  1502       68.50s   0.348% 122.170 ||
|| sparse_product                       :  6455       68.95s   0.350%  ------ ||
|| projectors_gradient_batch            :   172       81.57s   0.414%  ------ ||
|| sparse_spam3toblacs_real_fast_B1     : 353.5k      98.43s   0.500%  ------ ||
|| fourier_apply_cell_backward          :  6246      100.24s   0.509% 175.221 ||
|| sparse_spam3toblacs_real_fast        :  2762      104.85s   0.533%  ------ ||
|| basis_dot_function_with_box          : 5.711M     105.30s   0.535%  ------ ||
|| parallel_prepare_fd_halos            : 67269      105.59s   0.537%  ------ ||
|| cell_grid_extract_box_real           : 12400      140.64s   0.715%  ------ ||
|| sparse_blacstospam3_real_fast        :  2696      165.64s   0.842%  ------ ||
|| restart_ngwfs_tightbox_output        :    33      209.42s   1.064%  ------ ||
|| xc_energy_potential                  :   765      225.08s   1.144%  ------ ||
|| fourier_apply_cell_forward           :  6190      239.50s   1.217%  72.682 ||
|| cell_grid_deposit_box_real           : 30660      291.68s   1.482%  ------ ||
|| finite_difference_derivative         : 67269      309.84s   1.574%  ------ ||
|| dense_eigensolve                     :  1290      351.72s   1.787%  ------ ||
|| basis_add_function_to_box            : 18.23M     363.54s   1.847%  ------ ||
|| edft_diag_ngwf_ham                   :  1288      447.56s   2.274%  ------ ||
|| ngwf_gradient_build_batch            :   172      456.78s   2.321%  ------ ||
|| hamiltonian_energy_components        :    18      560.25s   2.847%  ------ ||
|| integrals_locpot_mat_els_batch       :  1068      610.09s   3.100%  ------ ||
|| implicit_solvent_boltzmann_forces    :    14      637.03s   3.237%  ------ ||
|| edft_apply_smearing_operator         :   644      680.11s   3.456%  ------ ||
|| ngwf_gradient_batch                  :   172      776.41s   3.945%  ------ ||
|| ngwf_gradient_lnv                    :    43      817.07s   4.152%  ------ ||
|| density_batch_row_sums               :  3004      935.91s   4.756%  ------ ||
|| smeared_ion_force_correction         :    28     1250.40s   6.354%  ------ ||
|| density_fftbox_deposit_to_cell       : 30040     1253.15s   6.368%  ------ ||
|| implicit_solvent_soft_sphere_forces  :    14     1321.17s   6.713%  ------ ||
|| potential_apply_to_ngwf_batch        :  1068     1765.91s   8.973%  ------ ||
|| dl_mg_solver_calls                   :   751     2202.49s  11.191%  ------ ||
|| multigrid_calculate_hartree          :   751     2278.00s  11.575%  ------ ||
|| integrals_locpot_dbl_grid            :   534     2381.94s  12.103%  ------ ||
|| fourier_apply_box                    : 77315     2864.03s  14.553%  2.082k ||
|| density_fftbox_interpolate_multiply  : 30040     3400.73s  17.280%  ------ ||
|| forces_calculate                     :    14     3404.27s  17.298%  ------ ||
|| density_batch_interp_deposit         :  3004     5818.93s  29.567%  ------ ||
|| density_on_dbl_grid                  :  1502     7004.55s  35.592%  ------ ||
|| hamiltonian_lhxc_calculate           :   719     9620.67s  48.885%  ------ ||
|| edft_calculate                       :    43    11874.89s  60.339%  ------ ||
|| ngwf_cg_optimise                     :    14    14050.68s  71.394%  ------ ||
|| energy_and_forces                    :    14    19603.88s  99.611%  ------ ||
|| total_time                           :     1    19680.35s 100.000%  ------ ||
================================================================================
Overhead of generating timer report: 
- 0 ms averaging over threads,
- 12 ms ensuring consistency across MPI ranks,
- 20 ms printing in order.

Job completed: 20-10-2023 17:22 (+0100)

onetep_launcher: ONETEP seems to have finished correctly (zero exit code).
