==================================================================================
It's Fri 20 Oct 2023 11:50:44 AM BST.
*** Starting onetep_launcher (node nid006735, PIDs 31214 31215 31216 31217 31218 31219 31220 31221 31222 31223 31224 31225 31226 31227 31228 31229)...
    - ONETEP arguments: graphite.dat
    - Current directory: /mnt/lustre/a2fs-work3/work/e89/e89/arihant/linuc/theta/new/02/0.1
    - Launcher executable directory: /mnt/lustre/a2fs-work3/work/e89/e89/arihant/onetep/utils
    - (-e) ONETEP executable specified through command-line: /work/e89/e89/arihant/onetep/bin/onetep.archer2_2023_cray
      ... trying /work/e89/e89/arihant/onetep/bin/onetep.archer2_2023_cray
          -> looks OK
*** Setting up environment...
    - (-s) Process stack size: unlimited
    - (-t) OMP_NUM_THREADS: 8
    - (-o) OMP_STACKSIZE: 64M
    - (-c) Maximum core file size: 2048000
    - (-d) decfort_dump_flag: n
    - (-m) I_MPI_OFA_TRANSLATION_CACHE: 0
    - (-m) I_MPI_DAPL_TRANSLATION_CACHE: 0
    - (-m) I_MPI_DAPL_UD_TRANSLATION_CACHE: 0
*** Starting ONETEP...
    - /work/e89/e89/arihant/onetep/bin/onetep.archer2_2023_cray graphite.dat
=================================================================================
_________________________________________________________________________________
 +---------------------------------------------------------------+
 |                                                               |
 |        ####### #     # ####### ####### ####### ######         |
 |        #     # ##    # #          #    #       #     #        |
 |        #     # # #   # #          #    #       #     #        |
 |        #     # #  #  # #####      #    #####   ######         |
 |        #     # #   # # #          #    #       #              |
 |        #     # #    ## #          #    #       #              |
 |        ####### #     # #######    #    ####### #              |
 |                                                               |
 |        Linear-Scaling Ab Initio Total Energy Program          |
 |                                                               |
 |          Release for academic collaborators of ODG            |
 |                                             Version 6.1.59    |
 | Remote: https://github.com/onetep-devel/onetep.git            |
 | Local branch: master                                          |
 | Commit ID: 3df6b8ca88fa1735659d3248d54c94b50edec21b           |
 | Date: Thu Oct 5 13:49:52 2023 +0200                           |
 | Working tree clean                                            |
 |                                                               |
 +---------------------------------------------------------------+
 |                                                               |
 |  Authors:                                                     |
 |  Jacek Dziedzic, Peter D. Haynes, Nicholas D. M. Hine,        |
 |  Arash A. Mostofi, Mike C. Payne and Chris-Kriton Skylaris    |
 |                                                               |
 |  Contributors:                                                |
 |  J. Aarons, L. Andrinopoulos, P. W. Avraam, R. A. Bell,       |
 |  A. Bhandari, G. A. Bramley, R. J. Charlton, S. J. Clark,     |
 |  R. J. Clements, G. C. Constantinescu, F. Corsetti,           |
 |  N. Corsini, O. Dieguez, S. M. M. Dubois, K. K. B. Duff,      |
 |  J. M. Escartin, M. Escobar Azor, A. Greco,                   |
 |  H. Helal, Q. O. Hill, L. P. Lee, J.-H. Li,                   |
 |  E. B. Linscott, G. Moynihan, D. D. O`Regan,                  |
 |  O. K. Okan, M. J. S. Phipps, C. J. Pickard,                  |
 |  J. C. A. Prentice, M. I. J. Probert, L. E. Ratcliff,         |
 |  M. Robinson, A. Ruiz Serrano, M. dos Santos Dias,            |
 |  J. S. Spencer, E. W. Tait, G. Teobaldi, D. Turban,           |
 |  V. Vitale, K. A. Wilkinson, C. Weber, J. C. Womack,          |
 |  N. Yeung and T. J. Zuehlsdorff                               |
 |                                                               |
 |                                   Copyright (c) 2004-2023     |
 |                                                               |
 |  Please cite:                                                 |
 |  "The ONETEP linear-scaling density functional theory program"|
 |   J. Chem. Phys. 152(17) 174111 (2020)                        |
 |                                                               |
 |          in all publications arising from your use of ONETEP. |
 |                                                               |
 +---------------------------------------------------------------+
 |                                                               |
 |   ONETEP is based on developments described in the following  |
 |   publications:                                               |
 |                                                               |
 |  "Nonorthogonal generalized Wannier function pseudopotential  |
 |   plane-wave method".                                         |
 |   C.-K. Skylaris, A. A. Mostofi, P. D. Haynes, O. Dieguez,    |
 |   M. C. Payne.                                                |
 |   Phys. Rev. B 66 035119 (2002).                              |
 |                                                               |
 |  "Preconditioned iterative minimization for linear-scaling    |
 |   electronic structure calculations".                         |
 |   A. A. Mostofi, P. D. Haynes, C.-K. Skylaris, M. C. Payne.   |
 |   J. Chem. Phys. 119(17), pp.8842-8848 (2003).                |
 |                                                               |
 |  "Total-energy calculations on a real space grid with         |
 |   localized functions and a plane-wave basis".                |
 |   A. A. Mostofi, C.-K. Skylaris, P. D. Haynes, M. C. Payne.   |
 |   Comput. Phys. Commun. 147, pp.788-802 (2002).               |
 |                                                               |
 |  "Accurate kinetic energy evaluation in electronic structure  |
 |   calculations with localized functions on real space grids"  |
 |   C.-K. Skylaris, A. A. Mostofi, P. D. Haynes, C. J. Pickard, |
 |   M. C. Payne.                                                |
 |   Comput. Phys. Commun. 140, pp.315-322 (2001).               |
 |                                                               |
 |  "Accurate ionic forces and geometry optimization in linear-  |
 |   scaling density-functional theory with local orbitals"      |
 |   N. D. M. Hine, M. Robinson, P. D. Haynes, C.-K. Skylaris,   |
 |   M. C. Payne, and A. A. Mostofi.                             |
 |   Phys. Rev. B 83 195102 (2011).                              |
 |                                                               |
 +---------------------------------------------------------------+

Job started: 20-10-2023 11:50 (+0100)
 
Reading parameters from file "graphite.dat" ...... done

If your calculation crashes here, before "Checking processes and threads..."
is displayed, then your stack size is insufficient.
If so, use "ulimit -s unlimited" at runtime.
You can disable this check with "check_stack_size F".

Checking processes and threads...
   Determining the default number of threads...
      No default threads set at compilation time: defaulting to 1.
      OpenMP library call suggests 8 threads.
      Hybrid MPI-OpenMP compilation detected.
      Number of MPI processes > 1.
      OMP_NUM_THREADS environment variable present and
      its value matches the one obtained from the OpenMP library call.
      Using this value as default.
      Default threads: 8
      Default applies to threads_max and threads_num_fftboxes.
      Settings in the input file override this default.
   ... done

   Running with 128 MPI processes.
   There are 16 MPI processes running on the same node as the root process.
   Each MPI process is using: 
               1 threads for simulation cell FFTs.
               1 threads for parallel FFT box operations.
               8 threads for loops over batched FFT box operations.
               8 threads in other parallel regions.
   MPI Interface: S1 (use mpi_f08) (-DMPI -DUSE_MPI_F08).
   MPI_ASYNC_PROTECTS_NONBLOCKING: Yes. MPI_SUBARRAYS_SUPPORTED: Yes.
   GPU Interface: None.
... done

Basic input checks...
Resetting ngwf_cg_rotate to TRUE for EDFT calculations
... done

Reading geometry and species blocks from file "graphite.dat" ...
  Reading POSITIONS geometry from str.xyz

  <species_atomic_set> block not found: NGWF initialisation set to SOLVE
IS: Dielectric excluded regions:
    - NONE.
IS: Assigning soft sphere radii for soft sphere solvation...
IS: No soft sphere radii specified. Default Alvarez radii used for all atoms.

----------- SOFT SPHERE RADII -----------
Li  5.333
C   4.442
-----------------------------------------

    
  Number of PPD points along a3 set to 1.  This is 
  the default value, it may have been provided also in the input file.
... done
 Writing xyz coordinates to file "graphite.xyz" ... done


--------------------------------------------------------------------------------
---------------------------------- INPUT FILE ----------------------------------
--------------------------------------------------------------------------------

task geometryoptimization                                                       
geom_method LBFGS                                                               
geom_continuation F                                                             
write_xyz T                                                                     
edft_grand_canonical T                                                          
edft_reference_potential  -4.42 eV                                              
edft_electrode_potential 0.10 V                                                 
edft_nelec_thres 0.000001                                                       
is_dielectric_function soft_sphere                                              
is_implicit_solvent T                                                           
is_smeared_ion_rep T                                                            
is_include_apolar T                                                             
is_solvation_properties F                                                       
is_pbe                    full                                                  
is_pbe_temperature        298.15                                                
is_pbe_bc_debye_screening T                                                     
is_pbe_neutralisation_scheme counterions_auto                                   
is_pbe_energy_tolerance 1E+50                                                   
is_bc_coarseness 5                                                              
is_bc_threshold 1E-9                                                            
is_bulk_permittivity 90.7                                                       
is_solvent_surf_tension 0.0506 N/m                                              
%block sol_ions                                                                 
Li  +1 1.0                                                                      
PF6 -1 1.0                                                                      
%endblock sol_ions                                                              
is_steric_pot_type M                                                            
is_hc_steric_dens_isovalue  0.001                                               
is_hc_steric_smearing         0.4 bohr                                          
is_steric_write T                                                               
%block species_solvent_radius                                                   
Li 3.0                                                                          
C 3.0                                                                           
%endblock species_solvent_radius                                                
multigrid_bc:   P P P                                                           
ion_ion_bc:     P P P                                                           
pspot_bc:       P P P                                                           
smeared_ion_bc: P P P                                                           
mg_max_iters_vcycle 500                                                         
mg_vcyc_smoother_iter_pre 4                                                     
mg_vcyc_smoother_iter_post 4                                                    
mg_max_res_ratio 1000.0                                                         
mg_max_iters_newton 300                                                         
edft                    : T                                                     
edft_smearing_width     : 0.1 eV                                                
spin                    : 0.0                                                   
edft_spin_fix           : 2                                                     
spin_polarized          : T                                                     
cutoff_energy :  1000 eV                                                        
kernel_cutoff : 1000 bohr                                                       
xc_functional PBE                                                               
dispersion 4                                                                    
output_detail VERBOSE                                                           
do_properties T                                                                 
cube_format F                                                                   
dx_format F                                                                     
write_denskern T                                                                
write_tightbox_ngwfs T                                                          
write_hamiltonian T                                                             
%block species                                                                  
Li Li 3  5  8.0                                                                 
C  C  6  4  8.0                                                                 
%endblock species                                                               
%block species_pot                                                              
Li '/work/e89/e89/arihant/pseudo/Li.usp'                                        
C '/work/e89/e89/arihant/pseudo/C.usp'                                          
%endblock species_pot                                                           
%BLOCK LATTICE_CART                                                             
ang                                                                             
34.16920551     0.00000000     0.00000000                                       
0.00000000    19.72760000     0.00000000                                        
0.00000000     0.00000000   100.02798000                                        
%ENDBLOCK LATTICE_CART                                                          
positions_xyz_file str.xyz                                                      
     Hash =  -000008808632467549627714

--------------------------------------------------------------------------------
-------------------------------- END INPUT FILE --------------------------------
--------------------------------------------------------------------------------


 
 ESDF WARNING(1): "ispbeenergytolerance" (esdf_physical) has no units. Assume "hartree".
<<<<<<<<<<<<<<<<<<<<<<<<<<<<<<<<< Full system >>>>>>>>>>>>>>>>>>>>>>>>>>>>>>>>>>
<<<<<<<<<<<<<<<<<<<<<<<<< Pseudopotential information >>>>>>>>>>>>>>>>>>>>>>>>>>
File: /work/e89/e89/arihant/pseudo/Li.usp [ 2001 points up to Gmax=  52.9 (1/bohr)]
  Atomic number:  3;  ionic charge:  3.000000
    Shell 1: l = 0; rc = 1.19 bohr
    Shell 2: l = 0; rc = 1.25 bohr
File: /work/e89/e89/arihant/pseudo/C.usp [ 2001 points up to Gmax=  52.9 (1/bohr)]
  Atomic number:  6;  ionic charge:  4.000000
    Shell 1: l = 0; rc = 1.19 bohr
  Core charge supplied for Nonlinear Core Corrections
<<<<<<<<<<<<<<<<<<<<<<<<<<<<<<<<<<<<<<<<>>>>>>>>>>>>>>>>>>>>>>>>>>>>>>>>>>>>>>>>

-------------------------- Atom counting information ---------------------------
Symbol    Natoms    Nngwfs    Nprojs
  Li         2        10         4
  C        512      2048       512
.......   ......    ......    ......
Totals:    514      2058       516
--------------------------------------------------------------------------------

=============================== PSINC grid sizes ===============================
                      Simulation cell:  143 x  91 x 416
                              FFT-box:  117 x  91 x 117
                                  PPD:   11 x   7 x   1
Grid space d1=  0.451541543008a0 (KE cutoff=  37.25706Eh =1013.81618eV)
Grid space d2=  0.409667706512a0 (KE cutoff=  45.26271Eh =1231.66098eV)
Grid space d3=  0.454388192297a0 (KE cutoff=  36.79171Eh =1001.15326eV)
================================================================================
  
WARNING in cell_grid_distribute:
Average of less than one 23-slab per proc, so workload cannot be
equally balanced between procs.

********************* Fourier parallelisation information **********************
       Coarse grid (whole simulation cell) dimensions:    143    91   416
          Real-space ('12') slabs/proc (min max mean):      3     4     3
         Recip-space ('23') slabs/proc (min max mean):      0     1     0
********************************************************************************

********************* Fourier parallelisation information **********************
       Double grid (whole simulation cell) dimensions:    286   182   832
          Real-space ('12') slabs/proc (min max mean):      6     7     6
         Recip-space ('23') slabs/proc (min max mean):      1     2     1
********************************************************************************

********************* Fourier parallelisation information **********************
         Fine grid (whole simulation cell) dimensions:    288   184   832
          Real-space ('12') slabs/proc (min max mean):      6     7     6
         Recip-space ('23') slabs/proc (min max mean):      1     2     1
         Grid scale modified to satisfy multigrid solver grid constraints
         Grid scale values after modifification:         2.01  2.02  2.00
********************************************************************************
ONETEP fine grid is 288 x 184 x 832 gridpoints, 64.5704 x 37.2798 x 189.0255 bohr.
FD multigrid is     288 x 184 x 832 gridpoints, 64.5704 x 37.2798 x 189.0255 bohr.


Atom SCF Calculation for Li : Z (AE atom) =   3 : Z (PS atom) =   3
Config String:
Orbitals (num,occ):  3     2.00 1.00 0.00
Orbitals   (num,l):  3        0    0    1
Real-space Grid (nr,dr,rmax): 1343    0.0059612519    8.0000000000
Spherical Bessel Basis (nsws,lmax,cutoff):   37    1  220.4959463253
Confining potential (l,width,scale):  0    3.0000000000  100.0000000000
Confining potential (l,width,scale):  1    3.0000000000  100.0000000000
  1         -3.7050169094   -5.2301177776    2.5388568852   -0.9989538802
  2         -6.0510920273   -4.2679357854    3.2724001845   -1.3422946715
  3         -6.7975021434   -3.8722499620    3.6648237887   -1.5325279919
  4         -7.0147472228   -3.7673066376    3.7864613280   -1.5966989055
  5         -7.0774132854   -3.7446783348    3.8157063634   -1.6161454686
  6         -7.0951992563   -3.7420177453    3.8204515040   -1.6217593843
  7         -7.1001226024   -3.7430426481    3.8200527077   -1.6233132433
  8         -7.1014239576   -3.7441529610    3.8191274553   -1.6237164860
  9         -7.1017352306   -3.7448434699    3.8184905098   -1.6238077213
 10         -7.1017916056   -3.7452114113    3.8181373932   -1.6238209669
 11         -7.1017908912   -3.7453946820    3.8179578223   -1.6238181917
 12         -7.1017822190   -3.7454828903    3.8178702968   -1.6238141227
 13         -7.1017768840   -3.7455162316    3.8178369316   -1.6238119017
 14         -7.1017732849   -3.7455353767    3.8178176959   -1.6238104459
 15         -7.1017709700   -3.7455463461    3.8178066371   -1.6238095253
 16         -7.1017695244   -3.7455526225    3.8178002910   -1.6238089565
 17         -7.1017686390   -3.7455562110    3.8177966534   -1.6238086105
 18         -7.1017681040   -3.7455582619    3.8177945697   -1.6238084022
 19         -7.1017677838   -3.7455594341    3.8177933764   -1.6238082778
 20         -7.1017675934   -3.7455601042    3.8177926929   -1.6238082039
 21         -7.1017674808   -3.7455604874    3.8177923014   -1.6238081602
 22         -7.1017674145   -3.7455607066    3.8177920771   -1.6238081344
Atom SCF converged after  22 iterations to a total energy of     -7.10176741

Atom SCF Calculation for C  : Z (AE atom) =   6 : Z (PS atom) =   4
Config String:
Orbitals (num,occ):  2     2.00 2.00
Orbitals   (num,l):  2        0    1
Real-space Grid (nr,dr,rmax): 1343    0.0059612519    8.0000000000
Spherical Bessel Basis (nsws,lmax,cutoff):   37    1  220.4959463253
Confining potential (l,width,scale):  0    3.0000000000  100.0000000000
Confining potential (l,width,scale):  1    3.0000000000  100.0000000000
  1         -5.8177092822   -1.2555419264    4.5135233515   -1.7471920893
  2         -5.6032261188   -1.3440047989    4.4246587726   -1.7090653419
  3         -5.5936068668   -1.3561735374    4.4140765627   -1.7034094417
  4         -5.5958505747   -1.3587284552    4.4121342699   -1.7022848669
  5         -5.5969687665   -1.3601698222    4.4109982405   -1.7017057890
  6         -5.5975400979   -1.3609792837    4.4103423276   -1.7013975981
  7         -5.5978435204   -1.3614297943    4.4099696476   -1.7012314972
  8         -5.5980096069   -1.3616786122    4.4097605138   -1.7011416075
  9         -5.5981021113   -1.3618152853    4.4096441572   -1.7010929151
 10         -5.5981539939   -1.3618900852    4.4095797860   -1.7010665406
 11         -5.5981831160   -1.3619309228    4.4095443105   -1.7010522599
 12         -5.5981994243   -1.3619531807    4.4095248124   -1.7010445305
 13         -5.5982085235   -1.3619652972    4.4095141175   -1.7010403487
 14         -5.5982135796   -1.3619718867    4.4095082606   -1.7010380870
 15         -5.5982163780   -1.3619754676    4.4095050573   -1.7010368642
 16         -5.5982179208   -1.3619774123    4.4095033073   -1.7010362032
 17         -5.5982187685   -1.3619784678    4.4095023522   -1.7010358460
 18         -5.5982192328   -1.3619790404    4.4095018314   -1.7010356530
 19         -5.5982194864   -1.3619793509    4.4095015476   -1.7010355488
 20         -5.5982196245   -1.3619795192    4.4095013931   -1.7010354925
 21         -5.5982196995   -1.3619796104    4.4095013090   -1.7010354621
Atom SCF converged after  21 iterations to a total energy of     -5.59821970

BC: Task: GEOMETRYOPTIMIZATION
BC: +++++++++++++++ Summary of boundary conditions ++++++++++++++
BC: |       Component       |     Keyword     |   Periodicity   |
BC: |                       |                 |     X  Y  Z [1] |
BC: |-----------------------------------------------------------|
BC: | Ion-ion               | ion_ion_bc [2]  |     P  P  P     |
BC: | Local pseudopotential | pspot_bc [3]    |     P  P  P     |
BC: | Multigrid solver      | multigrid_bc    |     P  P  P     |
BC: | Smeared ions          | smeared_ion_bc  |     P  P  P     |
BC: | Van der Waals         | vdw_bc          |     P  P  P     |
BC: +++++++++++++++++++++++++++++++++++++++++++++++++++++++++++++
BC: P: Periodic, O: Open.
BC: [1] Not strictly along X, Y, Z but rather along lattice vectors A1, A2, A3.
BC: [2] Also affected by: pbc_correction_cutoff, cutoff_coulomb_type,
BC:     is_smeared_ion_rep, is_implicit_solvent, openbc_ion_ion.
BC: [3] Also affected by: is_smeared_ion_rep, is_implicit_solvent, openbc_pspot.

================================================================================
<<<<<<<<<<<<<<<<<<<< Starting ONETEP Geometry Optimisation >>>>>>>>>>>>>>>>>>>>>
================================================================================

 Geometry Optimisation: output file is "graphite.geom"
 
 
                           -------------------------------
                                     Cell Contents
                           -------------------------------
 
            xxxxxxxxxxxxxxxxxxxxxxxxxxxxxxxxxxxxxxxxxxxxxxxxxxxxxxxxxxxx
            x  Element    Atom      Absolute co-ordinates of atoms     x
            x            Number        x           y           z       x
            x----------------------------------------------------------x
            x    Li        1       16.269654    9.157917   16.405882   x
            x    Li        2       48.360106   27.799081   16.406264   x
            x    C         3       41.782312    2.198451    6.429859   x
            x    C         4       49.853241    2.198228    6.429846   x
            x    C         5       57.924658    2.198065    6.433973   x
            x    C         6       12.191581    2.198626    6.426044   x
            x    C         7       20.262932    2.198783    6.426375   x
            x    C         8        4.120166    2.198587    6.433711   x
            x    C         9       28.334476    2.198577    6.433138   x
            x    C        10       36.405572    2.198502    6.430946   x
            x    C        11       44.476670    2.198470    6.428123   x
            x    C        12       52.547618    2.198243    6.430305   x
            x    C        13       60.619077    2.198396    6.432926   x
            x    C        14        1.425791    2.198407    6.435207   x
            x    C        15        9.497248    2.198437    6.429976   x
            x    C        16       17.568506    2.198708    6.425434   x
            x    C        17       25.640129    2.198677    6.433238   x
            x    C        18       33.711286    2.198473    6.433389   x
            x    C        19       29.675707    4.528562    6.433450   x
            x    C        20       37.746820    4.528455    6.431209   x
            x    C        21       45.817778    4.528481    6.430379   x
            x    C        22        8.156043    4.528411    6.428217   x
            x    C        23       53.888982    4.528162    6.433142   x
            x    C        24        0.084424    4.528387    6.433937   x
            x    C        25       16.227197    4.528568    6.418935   x
            x    C        26       24.298834    4.528596    6.427875   x
            x    C        27       32.370030    4.528468    6.432070   x
            x    C        28       40.441162    4.528389    6.429207   x
            x    C        29       48.512129    4.528243    6.429976   x
            x    C        30       56.583416    4.528113    6.432541   x
            x    C        31       61.960378    4.528477    6.434172   x
            x    C        32        5.461685    4.528438    6.433688   x
            x    C        33       13.532716    4.528530    6.420998   x
            x    C        34       21.604441    4.528621    6.424572   x
            x    C        35       25.640139    6.858508    6.429136   x
            x    C        36       33.711501    6.858370    6.432199   x
            x    C        37        4.120410    6.858423    6.433369   x
            x    C        38       41.782285    6.858453    6.430487   x
            x    C        39       49.853476    6.858241    6.432426   x
            x    C        40       12.191525    6.858585    6.417822   x
            x    C        41       20.263152    6.858576    6.418241   x
            x    C        42       28.334438    6.858525    6.430844   x
            x    C        43       36.405718    6.858491    6.430388   x
            x    C        44       44.476666    6.858500    6.429629   x
            x    C        45       52.547843    6.858302    6.431768   x
            x    C        46       57.924673    6.858234    6.433917   x
            x    C        47        1.425974    6.858341    6.435481   x
            x    C        48        9.497240    6.858474    6.424156   x
            x    C        49       60.619058    6.858425    6.432979   x
            x    C        50       17.568682    6.858442    6.416541   x
            x    C        51        0.084509    9.188328    6.433427   x
            x    C        52       21.604492    9.188580    6.419642   x
            x    C        53       29.675879    9.188468    6.431857   x
            x    C        54       37.746826    9.188466    6.431033   x
            x    C        55       45.817939    9.188485    6.431951   x
            x    C        56        8.155962    9.188449    6.424976   x
            x    C        57       16.227330    9.188434    6.412990   x
            x    C        58       24.298775    9.188398    6.424234   x
            x    C        59       32.370122    9.188332    6.430559   x
            x    C        60       40.441071    9.188393    6.429797   x
            x    C        61       48.512318    9.188400    6.431651   x
            x    C        62       53.889065    9.188427    6.433386   x
            x    C        63       56.583421    9.188304    6.432777   x
            x    C        64       61.960516    9.188340    6.434111   x
            x    C        65        5.461713    9.188438    6.431949   x
            x    C        66       13.532867    9.188514    6.415371   x
            x    C        67       17.568601   11.518444    6.414430   x
            x    C        68       25.640222   11.518251    6.428000   x
            x    C        69       33.711405   11.518338    6.430986   x
            x    C        70       41.782366   11.518304    6.431426   x
            x    C        71       60.619143   11.518336    6.432554   x
            x    C        72        4.120323   11.518380    6.432025   x
            x    C        73       12.191591   11.518463    6.416323   x
            x    C        74       20.263061   11.518480    6.416234   x
            x    C        75       28.334554   11.518431    6.429897   x
            x    C        76       36.405665   11.518402    6.429651   x
            x    C        77       44.476732   11.518531    6.431369   x
            x    C        78       49.853392   11.518538    6.434236   x
            x    C        79       52.547792   11.518546    6.433112   x
            x    C        80       57.924726   11.518340    6.434304   x
            x    C        81        1.425902   11.518319    6.434262   x
            x    C        82        9.497278   11.518397    6.422899   x
            x    C        83       13.532709   13.848578    6.417824   x
            x    C        84       21.604436   13.848327    6.421949   x
            x    C        85       29.675757   13.848399    6.431921   x
            x    C        86       37.746879   13.848370    6.431124   x
            x    C        87       56.583412   13.848454    6.433661   x
            x    C        88        0.084405   13.848274    6.432376   x
            x    C        89        8.155986   13.848387    6.426288   x
            x    C        90       16.227182   13.848369    6.415458   x
            x    C        91       24.298838   13.848151    6.425815   x
            x    C        92       32.370068   13.848321    6.430292   x
            x    C        93       40.441196   13.848355    6.430572   x
            x    C        94       48.512131   13.848578    6.433367   x
            x    C        95       45.817788   13.848573    6.433658   x
            x    C        96       53.888988   13.848629    6.435100   x
            x    C        97       61.960365   13.848372    6.433151   x
            x    C        98        5.461658   13.848353    6.431849   x
            x    C        99        9.497132   16.178416    6.427219   x
            x    C       100       17.568553   16.178272    6.421195   x
            x    C       101       25.640076   16.178116    6.431258   x
            x    C       102       33.711391   16.178304    6.432099   x
            x    C       103       52.547730   16.178660    6.433032   x
            x    C       104       60.619041   16.178492    6.432584   x
            x    C       105        4.120232   16.178354    6.431704   x
            x    C       106       12.191428   16.178427    6.422276   x
            x    C       107       20.262987   16.178219    6.422865   x
            x    C       108       44.476621   16.178571    6.431942   x
            x    C       109       28.334389   16.178289    6.431651   x
            x    C       110       36.405676   16.178384    6.430868   x
            x    C       111       41.782295   16.178376    6.432732   x
            x    C       112       49.853360   16.178544    6.433635   x
            x    C       113       57.924647   16.178546    6.434674   x
            x    C       114        1.425853   16.178263    6.433459   x
            x    C       115       13.532763   18.508401    6.426363   x
            x    C       116       21.604273   18.508125    6.429844   x
            x    C       117       29.675800   18.508227    6.433960   x
            x    C       118       48.512142   18.508535    6.429066   x
            x    C       119       56.583263   18.508579    6.432677   x
            x    C       120        0.084333   18.508284    6.432288   x
            x    C       121        8.155720   18.508339    6.429058   x
            x    C       122       40.441162   18.508437    6.431802   x
            x    C       123       16.227165   18.508242    6.424848   x
            x    C       124       24.298713   18.508042    6.430995   x
            x    C       125       32.370145   18.508314    6.432376   x
            x    C       126       37.746917   18.508426    6.433393   x
            x    C       127       45.817829   18.508507    6.431003   x
            x    C       128       53.888855   18.508756    6.432208   x
            x    C       129       61.960354   18.508511    6.433994   x
            x    C       130        5.461382   18.508463    6.431932   x
            x    C       131        9.497061   20.838365    6.429884   x
            x    C       132       17.568482   20.838227    6.430211   x
            x    C       133       25.640135   20.838037    6.433975   x
            x    C       134       44.476736   20.838492    6.426894   x
            x    C       135       52.547666   20.838687    6.425715   x
            x    C       136       36.405797   20.838397    6.433626   x
            x    C       137       60.619017   20.838551    6.432851   x
            x    C       138        4.119971   20.838475    6.431044   x
            x    C       139       12.191545   20.838405    6.428098   x
            x    C       140       20.262953   20.838152    6.430407   x
            x    C       141       28.334557   20.838237    6.433134   x
            x    C       142       33.711450   20.838341    6.434982   x
            x    C       143       41.782459   20.838331    6.430870   x
            x    C       144       49.853266   20.838509    6.425137   x
            x    C       145       57.924621   20.838513    6.433093   x
            x    C       146        1.425581   20.838350    6.433170   x
            x    C       147       61.960269   23.168536    6.433193   x
            x    C       148        5.461352   23.168447    6.431296   x
            x    C       149       13.532849   23.168413    6.430103   x
            x    C       150       40.441358   23.168313    6.429068   x
            x    C       151       21.604460   23.168071    6.433151   x
            x    C       152       32.370223   23.168332    6.434312   x
            x    C       153       48.512150   23.168430    6.419131   x
            x    C       154       56.583318   23.168458    6.427953   x
            x    C       155        0.084168   23.168352    6.431783   x
            x    C       156        8.155714   23.168305    6.429069   x
            x    C       157       16.227245   23.168248    6.430031   x
            x    C       158       24.298875   23.168103    6.432562   x
            x    C       159       29.675847   23.168332    6.434601   x
            x    C       160       37.747113   23.168322    6.434143   x
            x    C       161       45.817782   23.168405    6.421713   x
            x    C       162       53.889022   23.168555    6.424313   x
            x    C       163       57.924590   25.498426    6.429117   x
            x    C       164        1.425696   25.498337    6.431951   x
            x    C       165       36.406026   25.498377    6.433673   x
            x    C       166        9.497042   25.498385    6.429886   x
            x    C       167       17.568765   25.498254    6.432339   x
            x    C       168       44.476676   25.498456    6.418496   x
            x    C       169       52.547804   25.498500    6.417884   x
            x    C       170       60.618898   25.498449    6.430700   x
            x    C       171        4.120036   25.498456    6.430286   x
            x    C       172       12.191485   25.498434    6.428981   x
            x    C       173       20.263242   25.498271    6.431791   x
            x    C       174       25.640239   25.498192    6.433937   x
            x    C       175       33.711718   25.498271    6.435846   x
            x    C       176       41.782438   25.498351    6.424825   x
            x    C       177       28.334595   25.498345    6.433189   x
            x    C       178       49.853438   25.498396    6.416455   x
            x    C       179       32.370393   27.828205    6.433631   x
            x    C       180       53.889025   27.828449    6.419388   x
            x    C       181       61.960361   27.828345    6.431566   x
            x    C       182        5.461346   27.828362    6.430768   x
            x    C       183       13.532883   27.828387    6.431348   x
            x    C       184       40.441377   27.828313    6.425296   x
            x    C       185       48.512212   27.828362    6.413079   x
            x    C       186       56.583316   27.828351    6.424048   x
            x    C       187        0.084265   27.828338    6.430370   x
            x    C       188        8.155695   27.828319    6.429170   x
            x    C       189       16.227390   27.828311    6.431462   x
            x    C       190       21.604553   27.828415    6.433412   x
            x    C       191       24.298987   27.828220    6.432603   x
            x    C       192       29.675964   27.828300    6.434243   x
            x    C       193       37.747160   27.828400    6.432180   x
            x    C       194       45.817788   27.828368    6.415781   x
            x    C       195       49.853313   30.158366    6.414441   x
            x    C       196       57.924696   30.158226    6.427909   x
            x    C       197        1.425738   30.158302    6.431248   x
            x    C       198        9.497130   30.158226    6.430715   x
            x    C       199       28.334642   30.158291    6.432645   x
            x    C       200       36.405952   30.158349    6.432259   x
            x    C       201       44.476711   30.158343    6.416741   x
            x    C       202       52.547696   30.158360    6.416134   x
            x    C       203       60.619026   30.158304    6.429674   x
            x    C       204        4.120024   30.158258    6.429801   x
            x    C       205       12.191542   30.158393    6.430723   x
            x    C       206       17.568653   30.158381    6.434650   x
            x    C       207       20.263089   30.158500    6.433627   x
            x    C       208       25.640279   30.158209    6.434189   x
            x    C       209       33.711641   30.158211    6.434534   x
            x    C       210       41.782504   30.158266    6.423192   x
            x    C       211       45.817669   32.488480    6.418315   x
            x    C       212       53.888980   32.488219    6.422208   x
            x    C       213       61.960344   32.488283    6.431889   x
            x    C       214        5.461446   32.488240    6.431433   x
            x    C       215       24.298866   32.488340    6.433983   x
            x    C       216       32.370202   32.488175    6.432826   x
            x    C       217       40.441341   32.488276    6.426639   x
            x    C       218       48.512036   32.488291    6.415717   x
            x    C       219       56.583321   32.488098    6.426035   x
            x    C       220        0.084287   32.488285    6.430865   x
            x    C       221        8.155818   32.488315    6.430247   x
            x    C       222       16.227188   32.488448    6.433996   x
            x    C       223       13.532773   32.488476    6.433469   x
            x    C       224       21.604423   32.488591    6.435829   x
            x    C       225       29.675811   32.488323    6.433669   x
            x    C       226       37.747126   32.488313    6.432180   x
            x    C       227       41.782323   34.818287    6.427586   x
            x    C       228       49.853279   34.818098    6.421416   x
            x    C       229       57.924588   34.817987    6.431354   x
            x    C       230        1.425772   34.818200    6.433062   x
            x    C       231       20.263002   34.818576    6.434126   x
            x    C       232       28.334446   34.818368    6.433181   x
            x    C       233       36.405801   34.818246    6.432133   x
            x    C       234       44.476581   34.818312    6.422714   x
            x    C       235       52.547700   34.818093    6.423164   x
            x    C       236       12.191498   34.818453    6.431490   x
            x    C       237       60.618983   34.818176    6.431536   x
            x    C       238        4.120200   34.818300    6.431636   x
            x    C       239        9.497047   34.818283    6.432223   x
            x    C       240       17.568502   34.818446    6.434691   x
            x    C       241       25.640016   34.818463    6.435222   x
            x    C       242       33.711467   34.818178    6.434049   x
            x    C       243       45.817754   37.148242    6.426428   x
            x    C       244       53.888855   37.147976    6.430107   x
            x    C       245       61.960397   37.148136    6.433985   x
            x    C       246       16.227199   37.148474    6.429425   x
            x    C       247       24.298683   37.148510    6.433219   x
            x    C       248       32.370111   37.148195    6.432873   x
            x    C       249       40.441086   37.148185    6.429143   x
            x    C       250        8.155773   37.148299    6.431307   x
            x    C       251       48.512069   37.148004    6.424717   x
            x    C       252       56.583238   37.147860    6.431224   x
            x    C       253        0.084355   37.148155    6.432943   x
            x    C       254        5.461496   37.148365    6.433569   x
            x    C       255       13.532833   37.148369    6.430528   x
            x    C       256       21.604268   37.148612    6.433049   x
            x    C       257       29.675775   37.148318    6.434638   x
            x    C       258       37.746841   37.148259    6.432029   x
            x    C       259       18.906094    9.191180   12.511726   x
            x    C       260       13.521548    9.191552   12.511144   x
            x    C       261       14.864259   11.524457   12.508993   x
            x    C       262       17.562965   11.524444   12.505527   x
            x    C       263       51.190723   27.831104   12.514141   x
            x    C       264       45.806311   27.831386   12.508823   x
            x    C       265       47.149555   30.164534   12.508774   x
            x    C       266       49.848254   30.164058   12.507022   x
            x    C       267       14.864716    6.858614   12.517639   x
            x    C       268       17.563563    6.857856   12.514143   x
            x    C       269       21.597066   13.850494   12.486008   x
            x    C       270       18.904225   13.853809   12.486621   x
            x    C       271       13.522937   13.854431   12.486110   x
            x    C       272       14.865948   16.180852   12.487093   x
            x    C       273       17.561775   16.180625   12.485339   x
            x    C       274       47.149928   25.498232   12.516871   x
            x    C       275       49.848757   25.498122   12.516061   x
            x    C       276       53.882279   32.490334   12.485292   x
            x    C       277       51.189408   32.493308   12.486159   x
            x    C       278       45.808384   32.494650   12.487444   x
            x    C       279       47.151417   34.820791   12.487862   x
            x    C       280       49.847264   34.820421   12.485421   x
            x    C       281       14.866878    2.201983   12.490081   x
            x    C       282       17.562586    2.201310   12.488333   x
            x    C       283       22.937687    2.200684   12.499276   x
            x    C       284        9.491155    2.201754   12.498363   x
            x    C       285       63.294861    2.199072   12.528752   x
            x    C       286        6.797239    2.200639   12.516917   x
            x    C       287       31.007792    2.199647   12.536213   x
            x    C       288        1.419955    2.199607   12.534378   x
            x    C       289       25.631340    2.199184   12.514972   x
            x    C       290       33.703515    2.200433   12.527953   x
            x    C       291       39.081339    2.199671   12.536422   x
            x    C       292       55.223556    2.197215   12.529818   x
            x    C       293       57.917432    2.197676   12.535323   x
            x    C       294       47.152148    2.199037   12.514864   x
            x    C       295       41.775424    2.198759   12.528548   x
            x    C       296       49.846822    2.198676   12.512892   x
            x    C       297       18.904743    4.527873   12.494750   x
            x    C       298       13.523780    4.528389   12.494136   x
            x    C       299       10.831126    4.530951   12.489434   x
            x    C       300       26.971617    4.529093   12.517880   x
            x    C       301        5.455800    4.529900   12.516170   x
            x    C       302       21.597260    4.529825   12.488724   x
            x    C       303       59.259877    4.526727   12.526035   x
            x    C       304        2.762320    4.530208   12.536974   x
            x    C       305       35.044365    4.529923   12.522746   x
            x    C       306       61.954051    4.528190   12.520460   x
            x    C       307       29.665040    4.530023   12.534843   x
            x    C       308       43.115872    4.528844   12.535757   x
            x    C       309       51.188903    4.527054   12.531356   x
            x    C       310       37.738974    4.529067   12.525059   x
            x    C       311       53.883196    4.527200   12.534612   x
            x    C       312       45.810221    4.527909   12.529946   x
            x    C       313       22.938320    6.860581   12.490895   x
            x    C       314       63.296700    6.857183   12.529835   x
            x    C       315        6.796389    6.860212   12.500563   x
            x    C       316       31.006919    6.859114   12.539956   x
            x    C       317       39.080907    6.859288   12.522081   x
            x    C       318       57.918158    6.856592   12.519383   x
            x    C       319        1.420343    6.858903   12.540209   x
            x    C       320        9.489177    6.861255   12.487195   x
            x    C       321       25.630991    6.859468   12.500540   x
            x    C       322       33.701380    6.858670   12.527922   x
            x    C       323       55.223408    6.857470   12.526817   x
            x    C       324       47.151485    6.859124   12.532915   x
            x    C       325       41.776040    6.859800   12.525245   x
            x    C       326       49.848048    6.858570   12.531566   x
            x    C       327       51.190102    9.189840   12.530952   x
            x    C       328       59.259763    9.187093   12.519347   x
            x    C       329        2.761839    9.188255   12.532860   x
            x    C       330       26.971965    9.188837   12.506419   x
            x    C       331       35.043526    9.188863   12.524209   x
            x    C       332       43.116199    9.190870   12.524536   x
            x    C       333       53.883874    9.188705   12.522612   x
            x    C       334       61.954788    9.187068   12.522935   x
            x    C       335        5.454912    9.189381   12.503411   x
            x    C       336       21.601187    9.190436   12.490871   x
            x    C       337       29.665218    9.188179   12.530169   x
            x    C       338       37.739224    9.189950   12.519458   x
            x    C       339       45.810165    9.191046   12.529551   x
            x    C       340       10.826882    9.191063   12.490510   x
            x    C       341       47.152335   11.522654   12.539669   x
            x    C       342       55.223559   11.519342   12.533582   x
            x    C       343       63.296103   11.517484   12.530313   x
            x    C       344       31.007528   11.517081   12.537399   x
            x    C       345       39.081651   11.520980   12.529136   x
            x    C       346       49.848916   11.522027   12.537876   x
            x    C       347       57.918188   11.518117   12.526420   x
            x    C       348        1.419838   11.517074   12.537142   x
            x    C       349       33.702054   11.518754   12.527645   x
            x    C       350       41.776854   11.521902   12.532947   x
            x    C       351        6.795818   11.519315   12.498446   x
            x    C       352       22.938533   11.519702   12.489402   x
            x    C       353       25.631427   11.518741   12.499310   x
            x    C       354        9.488716   11.520336   12.486299   x
            x    C       355       45.811788   13.854333   12.537692   x
            x    C       356       43.117413   13.852900   12.544233   x
            x    C       357       51.189964   13.853286   12.539353   x
            x    C       358       59.259262   13.848321   12.532700   x
            x    C       359       35.045512   13.847792   12.525369   x
            x    C       360       53.883929   13.850757   12.543235   x
            x    C       361       61.953307   13.846588   12.522928   x
            x    C       362       29.666187   13.846267   12.529992   x
            x    C       363       37.740083   13.850759   12.532573   x
            x    C       364        2.761245   13.846632   12.531849   x
            x    C       365       26.972687   13.848214   12.514785   x
            x    C       366        5.454666   13.848951   12.512419   x
            x    C       367       10.830123   13.851177   12.487276   x
            x    C       368       47.153784   16.183227   12.518627   x
            x    C       369       55.223497   16.180869   12.535935   x
            x    C       370       41.777134   16.182800   12.533811   x
            x    C       371       49.848317   16.182628   12.517584   x
            x    C       372       39.082930   16.180531   12.542358   x
            x    C       373       63.293684   16.176230   12.528835   x
            x    C       374       31.009266   16.176343   12.532195   x
            x    C       375       57.917022   16.178410   12.540115   x
            x    C       376       33.704944   16.176747   12.528049   x
            x    C       377        6.795552   16.179162   12.516463   x
            x    C       378        1.418706   16.176989   12.531333   x
            x    C       379       25.631962   16.178034   12.514700   x
            x    C       380       22.937915   16.178645   12.501117   x
            x    C       381        9.489502   16.179790   12.499985   x
            x    C       382       51.188803   18.512500   12.500019   x
            x    C       383       45.812283   18.512814   12.498726   x
            x    C       384       43.118031   18.512358   12.505924   x
            x    C       385       53.882774   18.510801   12.504085   x
            x    C       386       35.047764   18.508063   12.535470   x
            x    C       387       59.256199   18.508537   12.534714   x
            x    C       388       37.742839   18.510121   12.533951   x
            x    C       389       61.950958   18.507401   12.533342   x
            x    C       390       29.667447   18.508029   12.530481   x
            x    C       391        2.760444   18.509335   12.532926   x
            x    C       392       26.972433   18.507666   12.532547   x
            x    C       393        5.455500   18.509365   12.531269   x
            x    C       394       10.830729   18.509416   12.506610   x
            x    C       395       18.902849   18.508839   12.499658   x
            x    C       396       21.597257   18.508503   12.503983   x
            x    C       397       13.525108   18.509456   12.499072   x
            x    C       398       47.152416   20.841771   12.490978   x
            x    C       399       49.848179   20.841421   12.488401   x
            x    C       400       55.222792   20.840546   12.498938   x
            x    C       401       41.776744   20.841646   12.498284   x
            x    C       402       31.010113   20.839068   12.528786   x
            x    C       403       39.082690   20.840559   12.516552   x
            x    C       404       63.292516   20.839546   12.536545   x
            x    C       405       33.705724   20.839494   12.534578   x
            x    C       406       57.916247   20.839216   12.515044   x
            x    C       407        1.417754   20.840414   12.528244   x
            x    C       408        6.795746   20.839497   12.536415   x
            x    C       409       22.938579   20.837152   12.530097   x
            x    C       410       25.632601   20.837564   12.535385   x
            x    C       411       14.866759   20.838874   12.514643   x
            x    C       412        9.489847   20.838622   12.528612   x
            x    C       413       17.561501   20.838511   12.512829   x
            x    C       414       51.189979   23.168309   12.494546   x
            x    C       415       45.809171   23.167842   12.495521   x
            x    C       416       43.116653   23.170618   12.490551   x
            x    C       417       59.256526   23.169155   12.518277   x
            x    C       418       37.741380   23.169806   12.515804   x
            x    C       419       53.882540   23.169949   12.488038   x
            x    C       420       26.975100   23.166601   12.525793   x
            x    C       421       35.048017   23.170100   12.537020   x
            x    C       422        2.758743   23.169841   12.522901   x
            x    C       423       29.669326   23.168199   12.520237   x
            x    C       424       61.949843   23.169959   12.535230   x
            x    C       425       10.830438   23.168655   12.535640   x
            x    C       426       18.903800   23.166926   12.531488   x
            x    C       427        5.453249   23.168931   12.525141   x
            x    C       428       21.598092   23.167124   12.534824   x
            x    C       429       13.524757   23.167725   12.529761   x
            x    C       430       55.223267   25.500581   12.489880   x
            x    C       431       31.012048   25.497175   12.529891   x
            x    C       432       39.081921   25.500101   12.500123   x
            x    C       433       63.291671   25.499101   12.540323   x
            x    C       434        6.795370   25.499133   12.522229   x
            x    C       435       25.633387   25.496550   12.519277   x
            x    C       436       33.706146   25.498855   12.540355   x
            x    C       437       41.774600   25.501123   12.488021   x
            x    C       438       57.915903   25.499505   12.500593   x
            x    C       439        1.415658   25.498568   12.528081   x
            x    C       440       22.938530   25.497385   12.526936   x
            x    C       441       14.866133   25.498925   12.532773   x
            x    C       442        9.490501   25.499602   12.525360   x
            x    C       443       17.562773   25.498436   12.531604   x
            x    C       444       18.904936   27.829753   12.531027   x
            x    C       445       26.974996   27.827077   12.519224   x
            x    C       446       35.047498   27.828215   12.532669   x
            x    C       447       59.256878   27.828852   12.506835   x
            x    C       448        2.757951   27.828691   12.524196   x
            x    C       449       10.830742   27.830647   12.524596   x
            x    C       450       21.598825   27.828557   12.522826   x
            x    C       451       29.670167   27.827011   12.522828   x
            x    C       452       37.740667   27.829224   12.502649   x
            x    C       453       53.885611   27.830488   12.489449   x
            x    C       454       61.950002   27.828207   12.530560   x
            x    C       455        5.453655   27.829800   12.519481   x
            x    C       456       13.524738   27.830830   12.529370   x
            x    C       457       43.111452   27.830908   12.491832   x
            x    C       458       14.867084   30.162406   12.539573   x
            x    C       459       22.938673   30.159192   12.533881   x
            x    C       460       31.011449   30.157399   12.530150   x
            x    C       461       63.292352   30.157102   12.537341   x
            x    C       462        6.796128   30.160802   12.529219   x
            x    C       463       17.563640   30.161925   12.537798   x
            x    C       464       25.633373   30.158062   12.526460   x
            x    C       465       33.705645   30.157074   12.537057   x
            x    C       466        1.416352   30.158585   12.527556   x
            x    C       467        9.491303   30.161643   12.533208   x
            x    C       468       39.081366   30.159133   12.497955   x
            x    C       469       55.223463   30.159749   12.488251   x
            x    C       470       57.916325   30.158738   12.499291   x
            x    C       471       41.774122   30.160212   12.487150   x
            x    C       472       13.526340   32.494124   12.537590   x
            x    C       473       10.831948   32.492681   12.544227   x
            x    C       474       18.904816   32.493170   12.539164   x
            x    C       475       26.974508   32.488272   12.532526   x
            x    C       476        2.759947   32.487631   12.525029   x
            x    C       477       21.598837   32.490634   12.543367   x
            x    C       478       29.668630   32.486499   12.522518   x
            x    C       479       61.951081   32.486257   12.529869   x
            x    C       480        5.454475   32.490587   12.532411   x
            x    C       481       35.047042   32.486605   12.531520   x
            x    C       482       59.257582   32.488130   12.514957   x
            x    C       483       37.740369   32.488844   12.511688   x
            x    C       484       43.115683   32.491199   12.487947   x
            x    C       485       14.868356   34.823070   12.518300   x
            x    C       486       22.938407   34.820770   12.536107   x
            x    C       487        9.491584   34.822601   12.533586   x
            x    C       488       17.562950   34.822424   12.517007   x
            x    C       489        6.797375   34.820362   12.542160   x
            x    C       490       31.008972   34.816120   12.528317   x
            x    C       491       63.294149   34.816241   12.531885   x
            x    C       492       25.632128   34.818247   12.540234   x
            x    C       493        1.419368   34.816637   12.527497   x
            x    C       494       39.081137   34.819009   12.515771   x
            x    C       495       33.704515   34.816866   12.530961   x
            x    C       496       57.916948   34.817970   12.514640   x
            x    C       497       55.223057   34.818624   12.500856   x
            x    C       498       41.775227   34.819608   12.499541   x
            x    C       499       18.903548   37.152182   12.499743   x
            x    C       500       13.526756   37.152749   12.498433   x
            x    C       501       10.832477   37.152171   12.505909   x
            x    C       502       21.597533   37.150691   12.504029   x
            x    C       503        2.762165   37.147940   12.535088   x
            x    C       504       26.971392   37.148388   12.534527   x
            x    C       505        5.457223   37.149899   12.533924   x
            x    C       506       29.666230   37.147293   12.532900   x
            x    C       507       61.952222   37.147864   12.530451   x
            x    C       508       35.046184   37.149094   12.532628   x
            x    C       509       59.257284   37.147626   12.532513   x
            x    C       510       37.741223   37.149208   12.530995   x
            x    C       511       43.116288   37.149321   12.506363   x
            x    C       512       51.188032   37.148665   12.499724   x
            x    C       513       53.882400   37.148348   12.503823   x
            x    C       514       45.810622   37.149440   12.499316   x
            xxxxxxxxxxxxxxxxxxxxxxxxxxxxxxxxxxxxxxxxxxxxxxxxxxxxxxxxxxxx
 

Determining parallel strategy ...
... using space-filling curve
... NGWF load balancing: max     20;  min     16;  average     16
... Projector load balancing: max      5;  min      4;  average      4
... done
Calculating Ewald energy ...
              Ewald: real-space energy =        29685.529460
        Ewald: reciprocal-space energy =       126103.447590
         Ewald: (sum_charge)**2 energy =         3423.792447
         Ewald: (sum_charge**2) energy =          302.107330
                          Ewald energy =       152063.077272
======================= Empirical dispersion information =======================
Model : Grimme D2
Dispersion Correction Energy: -0.17427353E+01 Hartree
================================================================================
Basis initialisation ...... NGWF spheres initialised
... Projector spheres initialised
... NGWF tight boxes initialised
... Tight-boxes gathered
... NGWF basis size (local,global):        257335     32456510
... Nonlocal pseudopotential projector initialisation
... done

========================== Sparse matrix information ===========================
                        Overlap matrix filling:  29.57%
                        Density kernel filling: 100.00% (known to be dense)
              NGWF-Proj overlap matrix filling:   7.29%
                    Hamiltonian matrix filling:  30.73%
                  NGWF diagonal matrix filling:   0.19%
                             KS matrix filling: 100.00% 
                           KSKS matrix filling: 100.00% 
================================================================================

Sparse matrix initialisation ... done

Generating smeared ion density ... done
Smeared ion self correction:     -4094.145153
Smeared ion non-self correction: -152078.198741
IS: Initialising Boltzmann terms in implicit solvation...
----------------------------------------------------------
|           Boltzmann ions in implicit solvent:          |
+--------------------------------------------------------+
|       Name | Charge |  Conc. (mol/L)  |  Conc. (a.u.)  |
|         Li |  1.000 |    0.10000E+01  |   0.89239E-04  |
|        PF6 | -1.000 |    0.10000E+01  |   0.89239E-04  |
----------------------------------------------------------

IS: Generating smoothed hard-core steric potential ...
IS: - smearing:        0.40000E+00 bohr.
---------------------------------------------------------------
|      Atomic hard-core steric potential radial cut-offs      |
+-------------------------------------------------------------+
|   Species |   Symbol |            Radial cut-off (bohr)     |
|           |          |     solute      solvent        total |
|         1 |       Li |   3.558867 +   3.000000 =   6.558867 |
|         2 |        C |   3.308495 +   3.000000 =   6.308495 |
---------------------------------------------------------------

IS: Debye length is    6.18 bohr. PB equation variant: FULL. Use_fas: F.
IS: Exp_cap:   50.00. Steric pot: SMOOTHED SPHERES.
NGWF initialisation ... done
============ Calculation of NGWF S^-1 using Hotelling algorithm ================ 
         Iteration  |  Frobenius norm and Maximum abs value    (of I-S*S_n^-1)   
               1       0.44043217E+02     0.98380830E+00
               2       0.42961576E+02     0.96793422E+00
               3       0.41301524E+02     0.93707791E+00
               4       0.39116125E+02     0.87861669E+00
               5       0.36530261E+02     0.77381653E+00
               6       0.33585951E+02     0.69418746E+00
               7       0.30534587E+02     0.65056524E+00
               8       0.27602018E+02     0.61271180E+00
               9       0.24508307E+02     0.56990071E+00
              10       0.20663745E+02     0.50421341E+00
              11       0.15665835E+02     0.39971848E+00
              12       0.98082112E+01     0.25658948E+00
              13       0.44052062E+01     0.11279390E+00
              14       0.10505978E+01     0.24823352E-01
              15       0.68589291E-01     0.14405822E-02
              16       0.34054874E-03     0.59458027E-05
              17       0.11473015E-07     0.13605816E-09
              18       0.61686303E-13     0.44408921E-14
================================================================================
Calculating core density ... ... done

Generating solute cavity for implicit solvation ... done
MG DL_MG: Calling solver with defect correction order = 8
MG DL_MG: Solver finished
MG Fixed charge (1/2 \int rho_f phi dr) energy term:                 617.330597
MG Mobile charge (1/2 \int rho_m phi dr) energy term:                 -0.000000
MG Osmotic pressure (-kT \int dr \sum_i c_i(r)) energy term:          -0.069017
MG Mobile ion acc. corr. (\int dr \sum_i c_i(r) * V_steric(r)):        0.000173
MG Ion atmosph. rearr. (kT \int dr \sum_i c_i(r)*ln(c_i(r)/c^0):      -0.000173
MG Chemical potential (-\sum_i \mu_i \int dr c_i(r)) energy term:      0.000000
MG                                                               --------------
MG Mean-field contribution to grand potential                        617.261581

MG Check from alternate expression:
MG Fixed charge (1/2 \int rho_f phi dr) energy term:                 617.330597
MG Minus mobile charge (-1/2 \int rho_m phi dr) energy term:           0.000000
MG -kTV\Gamma \sum_i c^bulk_i(r) (osmotic pressure) energy term:      -0.069017
MG                                                               --------------
MG Mean-field contribution to grand potential:                       617.261581

IS: MG box volume:     455016.600 a0^3. Accessible fraction: 0.900092. PBC.
IS: Charge neutralisation scheme: COUNTERIONS_AUTO.

+--------------------------- Chemical potential --------------------------+
|   # | Name | Bulk conc. |    mu_ideal   |   mu_excess   |    mu_total   |
|-------------------------------------------------------------------------|
|   1 |   Li |  1.0000056 |   0.000000005 |  -0.000000005 |   0.000000000 |
|   2 |  PF6 |  1.0000056 |   0.000000005 |  -0.000000005 |  -0.000000000 |
|-------------------------------------------------------------------------|

+----------------- Boltzmann ion concentration and charge -----------------+
|   # | Name | Bulk conc. | Average conc. | Neutr. ratio |    Total charge |
|--------------------------------------------------------------------------|
|   1 |   Li |  1.0000056 |   1.000005587 | -.495374E+09 |    36.548604374 | 
|   2 |  PF6 |  1.0000056 |   1.000005587 | 0.495374E+09 |   -36.548604374 | 
+--------------------------------------------------------------------------+
                                                    total:    -0.000000000*

+---- Concentration difference from bulk value on simcell faces (mol/L) ---+
|   # | Name | Face | Bulk conc. | Actual conc. |  Difference |  RMS diff. |
|--------------------------------------------------------------------------|
+         There are no fully electrolyte-accessible simcell faces.         +
+--------------------------------------------------------------------------+
Up spin density kernel initialisation ...... done
Down spin density kernel initialisation ...... done

Writing density kernel to file "graphite.dkn" ... done

>>> Optimising kernel for current NGWFs:

--------------------------- Ensemble-DFT optimisation --------------------------
Running ScaLAPACK on  128 processor(s).
(P)DSYGVX in subroutine dense_eigensolve returned info=    2
 ifail= 2*0
 iclustr= 1458,  1492
 gap= 1.83376720834760988E-5,  4.91839879192052635E-5
(P)DSYGVX in subroutine dense_eigensolve returned info=    2
 ifail= 2*0
 iclustr= 1458,  1492
 gap= 1.83376720834765325E-5,  4.9183987919206429E-5

Reusing previously generated solute cavity.
MG DL_MG: Calling solver with defect correction order = 8
MG DL_MG: Solver finished
MG Fixed charge (1/2 \int rho_f phi dr) energy term:                 581.746396
MG Mobile charge (1/2 \int rho_m phi dr) energy term:                 -0.174162
MG Osmotic pressure (-kT \int dr \sum_i c_i(r)) energy term:          -0.153784
MG Mobile ion acc. corr. (\int dr \sum_i c_i(r) * V_steric(r)):        0.040463
MG Ion atmosph. rearr. (kT \int dr \sum_i c_i(r)*ln(c_i(r)/c^0):       0.359559
MG Chemical potential (-\sum_i \mu_i \int dr c_i(r)) energy term:     -0.051699
MG                                                               --------------
MG Mean-field contribution to grand potential                        581.766773

MG Check from alternate expression:
MG Fixed charge (1/2 \int rho_f phi dr) energy term:                 581.746396
MG Minus mobile charge (-1/2 \int rho_m phi dr) energy term:           0.174162
MG -kTV\Gamma \sum_i c^bulk_i(r) (osmotic pressure) energy term:      -0.153784
MG                                                               --------------
MG Mean-field contribution to grand potential:                       581.766773

IS: MG box volume:     455016.600 a0^3. Accessible fraction: 0.900092. PBC.
IS: Charge neutralisation scheme: COUNTERIONS_AUTO.

+--------------------------- Chemical potential --------------------------+
|   # | Name | Bulk conc. |    mu_ideal   |   mu_excess   |    mu_total   |
|-------------------------------------------------------------------------|
|   1 |   Li |  3.7679813 |   0.001252498 |  -0.000793171 |   0.000459327 |
|   2 |  PF6 |  0.6884297 |  -0.000352504 |  -0.000106823 |  -0.000459327 |
|-------------------------------------------------------------------------|

+----------------- Boltzmann ion concentration and charge -----------------+
|   # | Name | Bulk conc. | Average conc. | Neutr. ratio |    Total charge |
|--------------------------------------------------------------------------|
|   1 |   Li |  3.7679813 |   3.767993173 |     0.898826 |   137.714122340 | 
|   2 |  PF6 |  0.6884297 |   0.688429867 |     0.101174 |   -25.161010278 | 
+--------------------------------------------------------------------------+
                                                    total:   112.553112061*

+---- Concentration difference from bulk value on simcell faces (mol/L) ---+
|   # | Name | Face | Bulk conc. | Actual conc. |  Difference |  RMS diff. |
|--------------------------------------------------------------------------|
+         There are no fully electrolyte-accessible simcell faces.         +
+--------------------------------------------------------------------------+

Reusing previously generated solute cavity.
MG DL_MG: Calling solver with defect correction order = 8
MG DL_MG: Solver finished
MG Fixed charge (1/2 \int rho_f phi dr) energy term:                 621.582537
MG Mobile charge (1/2 \int rho_m phi dr) energy term:                 -0.000194
MG Osmotic pressure (-kT \int dr \sum_i c_i(r)) energy term:          -0.069204
MG Mobile ion acc. corr. (\int dr \sum_i c_i(r) * V_steric(r)):        0.000194
MG Ion atmosph. rearr. (kT \int dr \sum_i c_i(r)*ln(c_i(r)/c^0):       0.000193
MG Chemical potential (-\sum_i \mu_i \int dr c_i(r)) energy term:      0.000000
MG                                                               --------------
MG Mean-field contribution to grand potential                        621.513526

MG Check from alternate expression:
MG Fixed charge (1/2 \int rho_f phi dr) energy term:                 621.582537
MG Minus mobile charge (-1/2 \int rho_m phi dr) energy term:           0.000194
MG -kTV\Gamma \sum_i c^bulk_i(r) (osmotic pressure) energy term:      -0.069204
MG                                                               --------------
MG Mean-field contribution to grand potential:                       621.513526

IS: MG box volume:     455016.600 a0^3. Accessible fraction: 0.900092. PBC.
IS: Charge neutralisation scheme: COUNTERIONS_AUTO.

+--------------------------- Chemical potential --------------------------+
|   # | Name | Bulk conc. |    mu_ideal   |   mu_excess   |    mu_total   |
|-------------------------------------------------------------------------|
|   1 |   Li |  1.0027116 |   0.000002557 |  -0.000002194 |   0.000000363 |
|   2 |  PF6 |  1.0027116 |   0.000002557 |  -0.000002919 |  -0.000000363 |
|-------------------------------------------------------------------------|

+----------------- Boltzmann ion concentration and charge -----------------+
|   # | Name | Bulk conc. | Average conc. | Neutr. ratio |    Total charge |
|--------------------------------------------------------------------------|
|   1 |   Li |  1.0027116 |   1.002711608 | -.226128E+12 |    36.647505109 | 
|   2 |  PF6 |  1.0027116 |   1.002711611 | 0.226128E+12 |   -36.647505213 | 
+--------------------------------------------------------------------------+
                                                    total:    -0.000000103*

+---- Concentration difference from bulk value on simcell faces (mol/L) ---+
|   # | Name | Face | Bulk conc. | Actual conc. |  Difference |  RMS diff. |
|--------------------------------------------------------------------------|
+         There are no fully electrolyte-accessible simcell faces.         +
+--------------------------------------------------------------------------+

--------------------------------------------------------------------------------
  Iter                              Commutator    Grand pot.(L=E-TS-muN)  DeltaL
#    0                          0.000118896609   -2638.21226111605665  -2.64E+03

Step                       =       0.381966011250
Energy (E)                 =   -2979.246668041538
Entropy (-TS)              =      -0.149260634510
Chemical potential (-muN)  =     341.183667559992
Grand potential(L=E-TS-muN)=   -2638.212261116057
Est. 0K Energy 0.5*(E+L)   =   -2808.729464578797
Charge on quantum system   =    -112.552682628040
Residual Non-orthogonality =      -0.000000000000

Spin          Integrated_Ne            Fermi_level   Delta_Integrated_Ne
   1      1027.000000000000        -0.166106946232              0.00E+00
   2      1027.000000000000        -0.166106946232              0.00E+00

                           Spin 1           |                 Spin 2           |
     Orb |    H-eigenvalues     Occupancies |    H-eigenvalues     Occupancies |
       1 |    -1.8378802989    1.0000000000 |    -1.8378802989    1.0000000000 | 
                          ------                             ------
    1082 |    -0.1680496221    0.6291632893 |    -0.1680496221    0.6291632893 | 
    1083 |    -0.1680356552    0.6282761192 |    -0.1680356552    0.6282761192 | 
    1084 |    -0.1679889505    0.6253031845 |    -0.1679889505    0.6253031845 | 
    1085 |    -0.1662130254    0.5072159047 |    -0.1662130254    0.5072159047 | 
    1086 |    -0.1661085575    0.5001096087 |    -0.1661085575    0.5001096087 | 
                         Fermi level         |             Fermi level        
    1087 |    -0.1657807291    0.4778225138 |    -0.1657807291    0.4778225138 | 
    1088 |    -0.1657113812    0.4731162739 |    -0.1657113812    0.4731162739 | 
    1089 |    -0.1609676314    0.1980576265 |    -0.1609676314    0.1980576265 | 
    1090 |    -0.1608684682    0.1938066787 |    -0.1608684682    0.1938066787 | 
    1091 |    -0.1605435041    0.1803630655 |    -0.1605435041    0.1803630655 | 
                          ------                             ------
    2058 |     0.6065685594    0.0000000000 |     0.6065685594    0.0000000000 | 

                            |  Abs_value |  Threshold | Converged
     Delta_Free_energy/atom |   5.13E+00 |   1.00E-06 |        No
     Delta_Energy/atom      |   5.80E+00 |   1.00E-04 |        No
     Delta_Entropy/atom     |   2.90E-04 |   1.00E-04 |        No
     Commutator             |   1.19E-04 |   1.00E-05 |        No
     Delta_Int_Ne/atom      |   0.00E+00 |   1.00E-06 |       Yes

  Line search of the free energy minimum:
  Step_type        Step             Free_energy   Predicted_free_energy
.   Initial    0.000000    -2638.21226111605665
(P)DSYGVX in subroutine dense_eigensolve returned info=    2
 ifail= 2*0
 iclustr= 697,  713
 gap= 2.59656530417047641E-5,  3.61512834340380263E-5
(P)DSYGVX in subroutine dense_eigensolve returned info=    2
 ifail= 2*0
 iclustr= 697,  713
 gap= 2.59656530417565957E-5,  3.61512834340768475E-5

Reusing previously generated solute cavity.
MG DL_MG: Calling solver with defect correction order = 8
MG DL_MG: Solver finished
MG Fixed charge (1/2 \int rho_f phi dr) energy term:                 600.391988
MG Mobile charge (1/2 \int rho_m phi dr) energy term:                 -0.309888
MG Osmotic pressure (-kT \int dr \sum_i c_i(r)) energy term:          -0.203639
MG Mobile ion acc. corr. (\int dr \sum_i c_i(r) * V_steric(r)):        0.099760
MG Ion atmosph. rearr. (kT \int dr \sum_i c_i(r)*ln(c_i(r)/c^0):       0.630942
MG Chemical potential (-\sum_i \mu_i \int dr c_i(r)) energy term:     -0.110925
MG                                                               --------------
MG Mean-field contribution to grand potential                        600.498237

MG Check from alternate expression:
MG Fixed charge (1/2 \int rho_f phi dr) energy term:                 600.391988
MG Minus mobile charge (-1/2 \int rho_m phi dr) energy term:           0.309888
MG -kTV\Gamma \sum_i c^bulk_i(r) (osmotic pressure) energy term:      -0.203638
MG                                                               --------------
MG Mean-field contribution to grand potential:                       600.498238

IS: MG box volume:     455016.600 a0^3. Accessible fraction: 0.900092. PBC.
IS: Charge neutralisation scheme: COUNTERIONS_AUTO.

[...]
 C   180 -- C   185       -0.08     -0.00      5.38300
 C   228 -- C   234       -0.08     -0.00      5.38302
 C     6 -- C    16       -0.08     -0.00      5.38307
 C   134 -- C   144       -0.08     -0.00      5.38308
 C   392 -- C   396       -0.08     -0.00      5.38316
 C   509 -- C   513       -0.08     -0.00      5.38322
 C   485 -- C   487       -0.08     -0.00      5.38326
 C    40 -- C    50       -0.08     -0.00      5.38338
 C    67 -- C    73       -0.08     -0.00      5.38341
 C   430 -- C   470       -0.08      0.00      5.38341
 C   168 -- C   178       -0.08     -0.00      5.38343
 C   195 -- C   201       -0.08     -0.00      5.38352
 C   368 -- C   370       -0.08     -0.00      5.38354
 C   411 -- C   412       -0.08     -0.00      5.38369
 C   313 -- C   353       -0.08      0.00      5.38380
 C   294 -- C   295       -0.08     -0.00      5.38385
 C   409 -- C   413       -0.08     -0.00      5.38388
 C   486 -- C   488       -0.08     -0.00      5.38388
 C   274 -- C   437       -0.08     -0.00      5.38389
 C   367 -- C   397       -0.08      0.00      5.38392
 C   438 -- C   469       -0.08      0.00      5.38393
 C   299 -- C   500       -0.08      0.00      5.38395
 C   369 -- C   371       -0.08     -0.00      5.38398
 C   292 -- C   296       -0.08     -0.00      5.38403
 C   382 -- C   419       -0.08      0.00      5.38406
 C   320 -- C   351       -0.08     -0.00      5.38411
 C   315 -- C   354       -0.08     -0.00      5.38415
 C   383 -- C   416       -0.08      0.00      5.38419
 C   484 -- C   514       -0.08      0.00      5.38421
 C   267 -- C   320       -0.08     -0.00      5.38421
 C   321 -- C   352       -0.08      0.00      5.38422
 C   265 -- C   471       -0.08     -0.00      5.38427
 C   400 -- C   438       -0.08      0.00      5.38428
 C   302 -- C   499       -0.08      0.00      5.38439
 C   276 -- C   512       -0.08      0.00      5.38440
 C   268 -- C   313       -0.08     -0.00      5.38441
 C   284 -- C   315       -0.08      0.00      5.38445
 C   470 -- C   497       -0.08      0.00      5.38455
 C   437 -- C   468       -0.08     -0.00      5.38459
 C   261 -- C   354       -0.08     -0.00      5.38460
 C   262 -- C   352       -0.08     -0.00      5.38460
 C   351 -- C   381       -0.08      0.00      5.38461
 C   269 -- C   395       -0.08      0.00      5.38461
 C   432 -- C   471       -0.08     -0.00      5.38466
 C   283 -- C   321       -0.08      0.00      5.38467
 C   353 -- C   380       -0.08      0.00      5.38488
 C   401 -- C   432       -0.08      0.00      5.38491
 C   275 -- C   430       -0.08     -0.00      5.38505
 C   468 -- C   498       -0.08      0.00      5.38505
 C   266 -- C   469       -0.08     -0.00      5.38523
 C   272 -- C   381       -0.08     -0.00      5.38569
 C   281 -- C   284       -0.08     -0.00      5.38581
 C   279 -- C   498       -0.08     -0.00      5.38588
 C   398 -- C   401       -0.08     -0.00      5.38592
 C   499 -- C   500       -0.08     -0.00      5.38604
 C   395 -- C   397       -0.08     -0.00      5.38615
 C   382 -- C   383       -0.08     -0.00      5.38617
 C   282 -- C   283       -0.08     -0.00      5.38623
 C   512 -- C   514       -0.08     -0.00      5.38629
 C   399 -- C   400       -0.08     -0.00      5.38630
 C   273 -- C   380       -0.08     -0.00      5.38646
 C   280 -- C   497       -0.08     -0.00      5.38652
 C   414 -- C   453       -0.08      0.00      5.39744
 C   277 -- C   453       -0.08      0.00      5.39788
 C   271 -- C   340       -0.08      0.00      5.39794
 C   298 -- C   340       -0.08      0.00      5.39850
 C   297 -- C   336       -0.08      0.00      5.39877
 C   270 -- C   336       -0.08      0.00      5.39921
 C   278 -- C   457       -0.08      0.00      5.39935
 C   415 -- C   457       -0.08      0.00      5.39979
 C   270 -- C   271       -0.08     -0.00      5.39987
 C   277 -- C   278       -0.08     -0.00      5.39998
 C   414 -- C   415       -0.08     -0.00      5.40023
 C   297 -- C   298       -0.08     -0.00      5.40023
 C   266 -- C   274       -0.07     -0.00      5.40769
 C   262 -- C   267       -0.07     -0.00      5.40781
 C   265 -- C   275       -0.07     -0.00      5.40795
 C   261 -- C   268       -0.07     -0.00      5.40821
 C   259 -- C   260       -0.07     -0.00      5.40986
 C   263 -- C   264       -0.07     -0.00      5.41001
=============================================================


============== Orbital energy and occupancy information for spin 1 =============

      Total number of orbitals:    2058
        Occupancy sum (kernel):    1025.414515692
   Occupancy sum (eigenvalues):    1025.414515692
                 HOMO-LUMO gap:       0.000207393 Eh
                 Mid-gap level:      -0.169535886 Eh

                        Orbital | Energy (Eh) | Occupancy
                            1    -1.936088270   1.0000000
                        .......   ...........   .........
                         1016    -0.202132297   0.9999447
                         1017    -0.190527783   0.9987020
                         1018    -0.190340124   0.9986336
                         1019    -0.187981413   0.9974072
                         1020    -0.187854964   0.9973162
                         1021    -0.187139140   0.9967401
                         1022    -0.187030124   0.9966417
                         1023    -0.186432384   0.9960503
                         1024    -0.186364758   0.9959773
                         1025    -0.169639582   0.7233737
                        ....... -- gap at 0K -- .........
                         1026    -0.169432189   0.7118996
                         1027    -0.140965404   0.0010671
                         1028    -0.140870423   0.0010396
                         1029    -0.124841097   0.0000133
                         1030    -0.124797522   0.0000131
                         1031    -0.123789764   0.0000100
                         1032    -0.123671544   0.0000097
                         1033    -0.123235604   0.0000086
                         1034    -0.123120501   0.0000083
                         1035    -0.121014927   0.0000047
                        .......   ...........   .........
                         2058     0.758741471   0.0000000

================================================================================

============== Orbital energy and occupancy information for spin 2 =============

      Total number of orbitals:    2058
        Occupancy sum (kernel):    1025.414515694
   Occupancy sum (eigenvalues):    1025.414515694
                 HOMO-LUMO gap:       0.028466786 Eh
                 Mid-gap level:      -0.155198796 Eh

                        Orbital | Energy (Eh) | Occupancy
                            1    -1.936088270   1.0000000
                        .......   ...........   .........
                         1017    -0.190527783   0.9987020
                         1018    -0.190340124   0.9986336
                         1019    -0.187981413   0.9974072
                         1020    -0.187854964   0.9973162
                         1021    -0.187139140   0.9967401
                         1022    -0.187030124   0.9966417
                         1023    -0.186432384   0.9960503
                         1024    -0.186364758   0.9959773
                         1025    -0.169639582   0.7233737
                         1026    -0.169432189   0.7118996
                        ....... -- gap at 0K -- .........
                         1027    -0.140965404   0.0010671
                         1028    -0.140870423   0.0010396
                         1029    -0.124841098   0.0000133
                         1030    -0.124797522   0.0000131
                         1031    -0.123789764   0.0000100
                         1032    -0.123671544   0.0000097
                         1033    -0.123235604   0.0000086
                         1034    -0.123120501   0.0000083
                         1035    -0.121014927   0.0000047
                         1036    -0.120748939   0.0000044
                        .......   ...........   .........
                         2058     0.758741471   0.0000000

================================================================================

===================== Writing canonical molecular orbitals =====================
    Spin 1
| Orbital  Energy (eV)  Norm     |
| HOMO-5   -5.11179368  1.000000 | 
| HOMO-4   -5.09231511  1.000000 | 
| HOMO-3   -5.08934864  1.000000 | 
| HOMO-2   -5.07308332  1.000000 | 
| HOMO-1   -5.07124312  1.000000 | 
| HOMO     -4.61612791  1.000000 | 
| LUMO     -4.61048447  1.000000 | 
| LUMO+1   -3.83586381  1.000000 | 
| LUMO+2   -3.83327925  1.000000 | 
| LUMO+3   -3.39709912  1.000000 | 
| LUMO+4   -3.39591337  1.000000 | 
| LUMO+5   -3.36849088  1.000000 | 
================================================================================

===================== Writing canonical molecular orbitals =====================
    Spin 2
| Orbital  Energy (eV)  Norm     |
| HOMO-5   -5.09231511  1.000000 | 
| HOMO-4   -5.08934864  1.000000 | 
| HOMO-3   -5.07308332  1.000000 | 
| HOMO-2   -5.07124312  1.000000 | 
| HOMO-1   -4.61612791  1.000000 | 
| HOMO     -4.61048447  1.000000 | 
| LUMO     -3.83586381  1.000000 | 
| LUMO+1   -3.83327925  1.000000 | 
| LUMO+2   -3.39709912  1.000000 | 
| LUMO+3   -3.39591337  1.000000 | 
| LUMO+4   -3.36849088  1.000000 | 
| LUMO+5   -3.36527394  1.000000 | 
================================================================================
 
=============== Density of States (DOS) calculation for UP spin ================
Writing "graphite_UP_DOS.txt" ... done
================================================================================
 
============== Density of States (DOS) calculation for DOWN spin ===============
Writing "graphite_DN_DOS.txt" ... done
================================================================================
 
Writing bands to file "graphite.val_bands" ... done

IS: Calculating electrolyte contribution to the atomic forces ...
================================================================================
 
***********************************************************
********** Summary of Forces (values in Eh/a) *************
*                                                         *
* ---------------------- Minimum ------------------------ *
* Atom:       180, |F|min =    0.00001070                 *
* Components:     Fx|min       Fy|min       Fz|min        *
*               0.00000494  -0.00000317  -0.00000895      *
*                                                         *
* ---------------------- Maximum ------------------------ *
* Atom:         2, |F|max =    0.00121602                 *
* Components:     Fx|max       Fy|max       Fz|max        *
*               0.00116706   0.00033817   0.00004818      *
*                                                         *
* ---------------- Root Mean Square Force --------------- *
*                  |F|rms =    0.00024135                 *
* Components:     Fx|rms       Fy|rms       Fz|rms        *
*               0.00015020   0.00014271   0.00012379      *
***********************************************************
 

                                                      hartree           kcal/mol
IS: NB: Energy of pure electrolyte:         -0.07727029692890         -48.487842

------------------------------ TIMING INFORMATION ------------------------------
AVERAGE TIME:   19821.096s on    128 proc(s)                                    
TOTAL TIME:     19821.102s on    128 proc(s)                                    
================= AVERAGE TIMINGS FROM ALL PROCS (CUMULATIVE) ==================
|| TAG                                    #calls    cpu time   %total  Gflops ||
|| linalg_invert_sym_matrix             :     4        0.00s   0.000%  ------ || (1 procs only)
|| density_fftbox_interp_mult_imbal     : 32280        0.00s   0.000%  ------ ||
|| sparse_set_to_garbage                :   516        0.01s   0.000%  ------ ||
|| onetep.F90 final imbalance           :     1        0.02s   0.000%  ------ ||
|| onetep.F90 main loop imbalance       :     1        0.02s   0.000%  ------ ||
|| ewald_calculate_forces_realspace     :    13        0.06s   0.000%  ------ ||
|| ngwfs_initialise_from_radial         :     2        0.06s   0.000%  ------ ||
|| vdwcorrection_calculate_forces       :    13        0.08s   0.000%  ------ ||
|| vdwcorrection_calculate_energy       :    13        0.09s   0.000%  ------ ||
|| basis_extract_function_from_box      :  2813        0.20s   0.001%  ------ ||
|| pseudopotentials_core_density        :    13        0.25s   0.001%  ------ ||
|| pseudopotentials_local_on_grid       :    13        0.25s   0.001%  ------ ||
|| sparse_spam3toblacs_real_fast_imbal  :  3000        0.27s   0.001%  ------ ||
|| parallel_prepare_fd_halos_alloc      : 62559        0.35s   0.002%  ------ ||
|| restart_hamiltonian_read             :    11        0.43s   0.002%  ------ ||
|| parallel_prepare_fd_halos_request    : 62559        0.59s   0.003%  ------ ||
|| pseudopotentials_nonlocal_mat        :    71        0.64s   0.003%  ------ ||
|| sparse_blacstospam3_real_fast_imbal  :  2936        0.86s   0.004%  ------ ||
|| pseudo_make_structure_factor         :    13        1.53s   0.008%  ------ ||
|| smeared_ion_generate_potential_PBC   :    13        1.63s   0.008%  ------ ||
|| restart_hamiltonian_write            :    41        1.67s   0.008%  ------ ||
|| sparse_spam3toblacs_real_fast_B2     : 384.0k       2.09s   0.011%  ------ ||
|| energy_and_force_init_cell           :     1        2.38s   0.012%  ------ ||
|| parallel_prepare_fd_halos_satisfy    : 62559        2.92s   0.015%  ------ ||
|| sparse_init                          :    13        3.61s   0.018%  ------ ||
|| eigenstates_calculate                :     1        3.95s   0.020%  ------ ||
|| ngwf_gradient_coeffs                 :    41        5.92s   0.030%  ------ ||
|| pseudo_local_calculate_forces        :    13        6.15s   0.031%  ------ ||
|| ewald_calculate_energy               :    13        6.61s   0.033%  ------ ||
|| restart_kernel_write                 :    54        6.82s   0.034%  ------ ||
|| integrals_grad_spam3                 :    13        7.91s   0.040%  ------ ||
|| nonsc_forces_ngwfs_calc              :    13        7.95s   0.040%  ------ ||
|| density_init_guess_real              :    13        8.16s   0.041%  ------ ||
|| sparse_embed_hotelling_invert_embed  :    71        9.16s   0.046%  ------ ||
|| pseudo_nlcc_calculate_forces         :    13        9.95s   0.050%  ------ ||
|| projectors_func_grad_ovlp_box_spam3  :    39       10.88s   0.055%  ------ ||
|| pseudo_nl_calculate_forces           :    13       12.07s   0.061%  ------ ||
|| restart_ngwfs_tightbox_input         :    11       14.45s   0.073%  ------ ||
|| fourier_filter_cell                  :   628       17.29s   0.087% 202.393 ||
|| sparse_trace                         : 11138       17.84s   0.090%  ------ ||
|| projectors_func_ovlp_box_spam3       :    71       18.66s   0.094%  ------ ||
|| ewald_calculate_forces_recipspace    :    13       21.77s   0.110%  ------ ||
|| ewald_calculate_forces               :    13       21.98s   0.111%  ------ ||
|| boltzmann_init_steric_pot            :    13       22.31s   0.113%  ------ ||
|| parallel_prepare_fd_halos_clear      : 62559       25.27s   0.127%  ------ ||
|| parallel_prepare_fd_halos_comms_imbal: 62559       25.36s   0.128%  ------ ||
|| properties_calculate                 :     1       25.73s   0.130%  ------ ||
|| projectors_init_fftbox_recip         :   274       26.55s   0.134%  ------ ||
|| fourier_apply_box_pair               :  3312       31.98s   0.161%  1.672k ||
|| basis_copy_function_to_box           : 36979       35.22s   0.178%  ------ ||
|| function_ops_brappd_ketppd_spam3     :   129       41.64s   0.210%  ------ ||
|| parallel_prepare_fd_halos_comms_wait : 62559       42.36s   0.214%  ------ ||
|| integrals_kinetic_spam3              :    71       63.05s   0.318%  ------ ||
|| fourier_interpolate_cell             :  1614       67.99s   0.343% 132.263 ||
|| sparse_product                       :  6623       70.04s   0.353%  ------ ||
|| projectors_gradient_batch            :   164       73.82s   0.372%  ------ ||
|| parallel_prepare_fd_halos            : 62559       97.19s   0.490%  ------ ||
|| basis_dot_function_with_box          : 5.759M     106.08s   0.535%  ------ ||
|| fourier_apply_cell_backward          :  6677      109.31s   0.551% 171.782 ||
|| sparse_spam3toblacs_real_fast_B1     : 384.0k     109.41s   0.552%  ------ ||
|| sparse_spam3toblacs_real_fast        :  3000      116.18s   0.586%  ------ ||
|| cell_grid_extract_box_real           : 12560      139.09s   0.702%  ------ ||
|| sparse_blacstospam3_real_fast        :  2936      179.94s   0.908%  ------ ||
|| restart_ngwfs_tightbox_output        :    32      204.29s   1.031%  ------ ||
|| xc_energy_potential                  :   820      244.97s   1.236%  ------ ||
|| fourier_apply_cell_forward           :  6625      268.55s   1.355%  69.376 ||
|| finite_difference_derivative         : 62559      283.67s   1.431%  ------ ||
|| cell_grid_deposit_box_real           : 32890      305.79s   1.543%  ------ ||
|| basis_add_function_to_box            : 19.00M     373.48s   1.884%  ------ ||
|| dense_eigensolve                     :  1412      392.24s   1.979%  ------ ||
|| ngwf_gradient_build_batch            :   164      428.25s   2.161%  ------ ||
|| edft_diag_ngwf_ham                   :  1410      499.51s   2.520%  ------ ||
|| hamiltonian_energy_components        :    17      521.56s   2.631%  ------ ||
|| implicit_solvent_boltzmann_forces    :    13      585.69s   2.955%  ------ ||
|| integrals_locpot_mat_els_batch       :  1092      624.27s   3.150%  ------ ||
|| ngwf_gradient_batch                  :   164      726.90s   3.667%  ------ ||
|| edft_apply_smearing_operator         :   705      749.38s   3.781%  ------ ||
|| ngwf_gradient_lnv                    :    41      767.77s   3.873%  ------ ||
|| density_batch_row_sums               :  3228      967.87s   4.883%  ------ ||
|| smeared_ion_force_correction         :    26     1151.22s   5.808%  ------ ||
|| implicit_solvent_soft_sphere_forces  :    13     1217.49s   6.142%  ------ ||
|| density_fftbox_deposit_to_cell       : 32280     1321.33s   6.666%  ------ ||
|| potential_apply_to_ngwf_batch        :  1092     1779.31s   8.977%  ------ ||
|| dl_mg_solver_calls                   :   807     2189.84s  11.048%  ------ ||
|| multigrid_calculate_hartree          :   807     2272.87s  11.467%  ------ ||
|| integrals_locpot_dbl_grid            :   546     2409.84s  12.158%  ------ ||
|| fourier_apply_box                    : 80354     3027.36s  15.273%  2.060k ||
|| forces_calculate                     :    13     3133.14s  15.807%  ------ ||
|| density_fftbox_interpolate_multiply  : 32280     3651.79s  18.424%  ------ ||
|| density_batch_interp_deposit         :  3228     6188.12s  31.220%  ------ ||
|| density_on_dbl_grid                  :  1614     7401.99s  37.344%  ------ ||
|| hamiltonian_lhxc_calculate           :   777    10142.41s  51.170%  ------ ||
|| edft_calculate                       :    41    12546.79s  63.300%  ------ ||
|| ngwf_cg_optimise                     :    13    14599.26s  73.655%  ------ ||
|| energy_and_forces                    :    13    19750.72s  99.645%  ------ ||
|| total_time                           :     1    19821.10s 100.000%  ------ ||
================================================================================
Overhead of generating timer report: 
- 0 ms averaging over threads,
- 24 ms ensuring consistency across MPI ranks,
- 42 ms printing in order.

Job completed: 20-10-2023 17:21 (+0100)

onetep_launcher: ONETEP seems to have finished correctly (zero exit code).
