1215      
Geometry optimisation iteration:     2 | Lattice="34.1692 0.0000 0.0000  0.0000 39.4552 0.0000  0.0000 0.0000 100.0000"
Li    2.167825    1.175347    4.733089
Li    2.167621    6.094993    4.727336
Li    2.167799   11.014873    4.761615
Li    2.164714   15.973998    4.827173
Li    2.163327   20.880505    4.844984
Li    2.163975   25.826849    4.815483
Li    2.165339   30.776747    4.782593
Li    2.166095   35.683254    4.753691
Li   10.718031    1.174943    4.779652
Li   10.719415    6.090242    4.793718
Li   10.722224   11.013494    4.818976
Li   10.728417   15.962721    4.780946
Li   10.724497   20.887905    4.775295
Li   10.719694   25.830150    4.812203
Li   10.712432   30.786572    4.847544
Li   10.721909   35.682116    4.823009
Li   19.269177    1.174653    4.836103
Li   19.270328    6.093498    4.858159
Li   19.289091   11.006859    4.829502
Li   19.278640   15.950407    4.709902
Li   19.289687   20.888278    4.662563
Li   19.289884   25.826391    4.762194
Li   19.267197   30.789133    4.850323
Li   19.269314   35.681303    4.851815
Li   27.798851    1.174652    4.755315
Li   27.798534    6.091120    4.778492
Li   27.793514   11.019832    4.821521
Li   27.797511   15.971741    4.810915
Li   27.802358   20.879938    4.774107
Li   27.797182   25.827363    4.776346
Li   27.799816   30.776428    4.799351
Li   27.797811   35.683772    4.785727
Li    6.442324    3.620231    4.740284
Li    6.439639    8.567025    4.761000
Li    6.436776   13.475295    4.797448
Li    6.431393   18.422518    4.807805
Li    6.429702   23.371318    4.805435
Li    6.438109   28.291646    4.821315
Li    6.443467   33.232754    4.805587
Li    6.442019   38.172095    4.760835
Li   15.001139    3.622823    4.831280
Li   14.999262    8.559763    4.844869
Li   14.981077   13.485397    4.795299
Li   14.980684   18.423770    4.695135
Li   14.978706   23.355100    4.721026
Li   14.981853   28.302150    4.797097
Li   15.000910   33.241680    4.859492
Li   15.000285   38.162954    4.831903
Li   23.533106    3.621771    4.811663
Li   23.531618    8.570920    4.844943
Li   23.549367   13.475602    4.803910
Li   23.561229   18.414779    4.716322
Li   23.543526   23.392249    4.732831
Li   23.555337   28.280944    4.785650
Li   23.535815   33.238045    4.834363
Li   23.534358   38.164845    4.808915
Li   32.063831    3.621237    4.731577
Li   32.066437    8.568047    4.754784
Li   32.063063   13.486097    4.813800
Li   32.064801   18.423330    4.845324
Li   32.065213   23.371838    4.822280
Li   32.064608   28.283583    4.791797
Li   32.065260   33.232698    4.767666
Li   32.063635   38.168515    4.742523
C    17.831230   20.893180    2.800974
C    18.544794   22.129999    2.809413
C    18.545128   19.656242    2.798227
C    20.687359   20.893179    2.804164
C    19.973045   22.130008    2.810497
C    19.973300   19.655990    2.800029
C    16.410272   20.893330    2.820126
C    22.107754   20.893031    2.837173
C    17.834734   23.360099    2.845262
C    20.682745   23.360246    2.848152
C    17.834887   18.425476    2.820444
C    20.683555   18.425356    2.828263
C    15.699743   22.124069    2.824008
C    16.413633   23.360299    2.837777
C    15.699920   19.662533    2.813163
C    22.817390   22.123767    2.844441
C    22.103504   23.359827    2.847024
C    16.413851   18.425649    2.814301
C    22.817808   19.662215    2.833418
C    22.104282   18.425527    2.831976
C    18.544898   24.590975    2.864220
C    19.972361   24.590673    2.859944
C    18.545371   17.194513    2.825121
C    19.973043   17.194675    2.827403
C    14.271991   22.123794    2.841420
C    14.272091   19.662778    2.830818
C    24.244160   22.123346    2.857949
C    22.816734   24.596541    2.860600
C    15.700177   24.596858    2.867154
C    13.562151   20.893282    2.859791
C    24.244662   19.662616    2.845807
C    15.700229   17.188823    2.835642
C    13.557858   23.360315    2.868202
C    20.686212   25.827109    2.883217
C    22.817477   17.188775    2.851391
C    24.244297   24.596277    2.864425
C    24.958072   23.359447    2.864935
C    24.954521   20.893039    2.870445
C    17.831214   25.826762    2.897593
C    14.272017   24.597023    2.879338
C    22.106688   25.826752    2.891366
C     0.744842    6.097959    2.838863
C     1.458893    7.333771    2.841916
C     2.886017    7.333635    2.844068
C     1.458891    4.862163    2.836617
C    16.410402   25.826590    2.911279
C    33.493872    6.097915    2.855582
C     2.885783    4.862105    2.838488
C     3.599899    6.097904    2.843046
C    13.557963   18.425914    2.846951
C    20.686873   15.958185    2.851499
C    17.831674   15.958447    2.850771
C     0.748319    8.563740    2.862340
C    32.783235    4.867801    2.844005
C     0.748264    3.631939    2.848351
C    33.497326    3.631968    2.839426
C    32.783369    7.327975    2.855499
C     3.596601    8.563716    2.865707
C     5.020242    6.097610    2.863606
C     3.596361    3.631957    2.851482
C    33.497222    8.563857    2.859096
C    14.272096   17.188783    2.849600
C    31.356712    4.867801    2.850486
C     5.016763    3.631773    2.845869
C     1.459068    9.794196    2.862041
C     1.458948    2.401521    2.839315
C     5.730814    4.867598    2.853498
C    12.141600   20.893364    2.882005
C     2.885974    9.794107    2.863341
C     2.885946    2.401464    2.841011
C    32.783400    2.395770    2.839743
C    16.410756   15.958903    2.872014
C    30.642440    3.631868    2.848276
C     5.017059    8.563527    2.865306
C     5.730798    7.327649    2.865165
C    31.356509    2.395624    2.842289
C    12.138009   23.359773    2.914036
C    22.107269   15.958686    2.880503
C    24.958689   18.425831    2.856140
C     0.744988    1.165334    2.842929
C    30.646362    6.097752    2.875730
C     5.730557    2.395547    2.848880
C    31.356829    7.327774    2.867029
C    33.493944    1.165460    2.853116
C     7.157814    4.867587    2.865945
C     3.599745    1.165221    2.847347
C    26.378047   23.358804    2.892293
C    24.953961   25.826640    2.891976
C    24.245000   17.188727    2.862918
C     5.020145    1.165216    2.861769
C     7.157926    2.395418    2.857669
C    30.646097    1.165346    2.858731
C    29.222575    3.631760    2.871282
C    11.428065   22.129629    2.905205
C     0.745363   11.030262    2.882762
C     1.458947   39.384459    2.850183
C     7.871846    3.631646    2.866836
C    32.783755    9.800008    2.877961
C    32.783401   39.390400    2.847469
C     2.885708   39.384470    2.853067
C    19.972435   27.063672    2.916169
C     3.599700   11.030217    2.882973
C    26.374748   20.892865    2.877929
C    18.544512   27.063393    2.925665
C    31.356694   39.390365    2.849627
C     7.157826    7.327399    2.881766
C    28.512177    2.401436    2.862313
C    22.816407   27.057109    2.902075
C    29.225885    1.165318    2.857454
C     0.748169   38.154520    2.866483
C     5.730641    9.799753    2.882716
C     7.868011    6.097422    2.894767
C    33.497380   38.154554    2.854243
C    12.138031   18.426585    2.891580
C    13.562565   25.826781    2.932374
C    29.226274    6.097542    2.881245
C    11.427883   19.657042    2.894352
C    28.512225    4.862121    2.878152
C    33.494433   11.029925    2.904141
C     7.868013    1.165116    2.880657
C     5.730631   39.390123    2.862333
C     3.596429   38.154567    2.874601
C     5.019847   11.029479    2.903072
C     9.292190    3.631573    2.896862
C    27.088209   22.128615    2.889535
C    30.642905    8.563547    2.886891
C     1.459105   36.924650    2.862382
C    24.243472   27.056725    2.895598
C    32.783457   36.918991    2.861559
C    26.374022   25.825776    2.889449
C    27.087689   24.589327    2.890709
C    30.642621   38.154564    2.861169
C     2.886079   12.266284    2.903065
C     1.459111   12.266400    2.904326
C     2.885856   36.924781    2.867977
C     0.745350   35.688937    2.864894
C    11.428125   24.590221    2.933895
C    18.544887   14.721767    2.877805
C    19.973168   14.721732    2.876526
C    28.512119   39.384673    2.870055
C     7.157775   39.390095    2.872001
C     5.016695   38.154431    2.870186
C    31.356768    9.800050    2.893256
C    27.085421    2.401418    2.878149
C    33.494340   35.689165    2.877054
C    15.700280   27.056828    2.931095
C     9.288700    1.165039    2.886640
C    10.002234    2.401235    2.892075
C    31.356745   36.918834    2.866457
C     1.459120   34.452588    2.871660
C    29.222806   38.154832    2.884493
C     7.871615    8.563198    2.900921
C    13.562726   15.959128    2.899749
C     7.157962    9.799568    2.900772
C     0.748387   33.222645    2.889860
C     9.288594    6.097315    2.903906
C    32.783776   34.458985    2.874604
C    10.002363    4.861742    2.903988
C    26.378266   18.426409    2.895773
C    33.497396   33.222714    2.880666
C    12.142152   25.826408    2.941604
C    10.000574   22.129567    2.926996
C     3.599778   35.688953    2.879896
C    26.371470    1.165228    2.886724
C    27.085805    4.861787    2.897092
C     2.886201   34.452705    2.880920
C    27.088324   19.656746    2.889650
C    27.085525   39.384439    2.884125
C    26.375667    3.631608    2.908571
C     1.459250   31.992513    2.890391
C    28.512662    7.332999    2.904471
C    14.272571   27.056924    2.937446
C    15.700707   14.729233    2.902533
C    30.646275   35.689097    2.891487
C     0.745488   30.756582    2.901227
C    11.429699    2.401277    2.912480
C    29.223334    8.562806    2.921292
C     5.730496   36.918853    2.888725
C     5.730427   12.259463    2.913562
C    32.783894   31.986548    2.893534
C    31.356994   34.459114    2.882100
C    32.784126   12.259843    2.922136
C    20.682484   28.292971    2.957648
C    22.102588   28.292791    2.933239
C    33.494627   30.756810    2.913992
C    11.428265   17.196180    2.903160
C     7.871582   38.154399    2.894203
C     2.886234   31.992670    2.900780
C    10.000379   19.656992    2.918835
C    10.002161   39.384336    2.906248
C    10.000964   24.589717    2.949706
C    24.954442   15.958994    2.911622
C     3.596590   13.495693    2.939114
C     0.748671   13.495654    2.944692
C    22.817239   14.728767    2.906961
C    28.514293   24.589057    2.906528
C    27.087332   27.062084    2.903968
C     5.019864   35.689157    2.906446
C     3.596781   33.222724    2.910554
C    28.512405   36.924824    2.892065
C     9.290842   23.359465    2.954485
C     1.459484   29.520924    2.916799
C    28.514758   22.128823    2.909842
C     9.286605   20.893354    2.928456
C    17.834557   28.292730    2.970377
C    14.273187   14.729333    2.912940
C    24.951780    1.165278    2.920362
C    12.142164   15.959789    2.907012
C    24.957145   28.292746    2.912464
C    12.143380    1.165007    2.924100
C    30.646790   11.029698    2.935191
C    29.226115   35.689213    2.894154
C    11.429687    4.861419    2.924596
C    12.139387    3.631406    2.941640
C     9.291772    8.562581    2.936159
C     5.016674   13.495275    2.927468
C     7.868010   11.029311    2.937252
C    31.357145   31.986423    2.900973
C    32.784251   29.526995    2.913813
C     7.157621   36.918693    2.902937
C    10.002163    7.332754    2.924203
C    30.643363   33.222773    2.896306
C    26.375646   38.154626    2.915232
C     2.886222   29.520937    2.925368
C     9.291773   38.154651    2.924576
C    33.497868   13.495493    2.939258
C     3.600090   30.756740    2.920431
C    24.955727    3.631491    2.920575
C    11.429552   39.384008    2.923018
C     0.748983   28.291262    2.937704
C     7.157487   12.259047    2.926842
C    16.414110   28.292778    2.954638
C    28.514099   27.061796    2.911107
C    29.224278   23.358835    2.930903
C    24.241938    2.395647    2.922792
C    26.371779    6.097273    2.921377
C    26.376953   28.291955    2.926881
C    33.498249   28.291239    2.921806
C    29.227894   25.825322    2.912532
C    31.357413   12.259648    2.933469
C    27.086004   36.924786    2.906845
C     5.016943   33.222889    2.918320
C    31.357563   29.526957    2.916755
C    27.085973    7.333076    2.924777
C    24.243810   14.729231    2.918177
C     2.886041   14.725205    2.947805
C     5.730410   34.459053    2.915782
C    30.646909   30.756697    2.926574
C    27.087896   17.196133    2.914498
C     1.459338   14.725196    2.950661
C    13.563661    1.165124    2.956612
C    24.242000   39.390230    2.922007
C     9.286989   25.826183    2.960990
C     9.290529   18.426652    2.941265
C    10.000847   17.196518    2.924774
C    11.428469   27.063060    2.964944
C    28.515078   19.656468    2.915731
C     3.596425   28.291222    2.951577
C    17.835050   13.493199    2.934688
C     7.870853   23.359184    2.945250
C     1.459348   27.061238    2.937782
C    30.643663   28.291283    2.919394
C    20.683359   13.492823    2.929340
C    29.223795   28.291926    2.932170
C    28.512759   34.453114    2.909640
C    26.374363   15.959921    2.921480
C    32.784575   27.055079    2.927339
C    28.513379    9.792899    2.935830
C    29.223581   33.223356    2.922107
C    13.560066    3.631358    2.951993
C    24.955729   38.154713    2.921077
C     5.019833   30.757223    2.949553
C    31.357529   27.055011    2.922238
C     2.886220   27.061300    2.942781
C    29.228877   20.892973    2.923921
C    30.647749   25.824808    2.936289
C    14.273358    2.395385    2.954292
C    16.414333   13.493675    2.930414
C     9.288234   11.028806    2.945267
C     7.866748   20.893520    2.951893
C    29.226959   11.029114    2.941665
C     5.730388   14.731096    2.941702
C    22.815035    2.395430    2.941047
C    28.513309   29.521654    2.926853
C    10.001742    9.792427    2.943999
C    22.816051   29.528713    2.947674
C    29.227025   30.757322    2.923313
C    24.243099   29.528639    2.934512
C     7.157028   24.595610    2.947473
C    22.103671   13.493354    2.926387
C     7.866913   25.825569    2.969579
C     7.867718   35.689219    2.939311
C     7.871072   13.495020    2.941766
C     5.730392   31.986635    2.937612
C     5.016458   28.291635    2.948276
C    12.143652    6.097028    2.943162
C    24.242218    4.867180    2.942965
C    10.000778   27.062590    2.970559
C    13.558313   28.293025    2.961445
C     7.156897   22.123404    2.943466
C    11.428843   14.723442    2.933260
C    27.086821   29.521849    2.928760
C     0.745461   25.824965    2.944462
C    11.429646    7.332926    2.942463
C    19.971962   29.522326    2.977374
C    33.494755   25.825009    2.952274
C    12.139159   38.154440    2.956410
C    30.644188   23.358651    2.938959
C     7.157491   34.459318    2.931663
C    22.815059   39.390255    2.939079
C    22.105642    1.165091    2.958134
C    10.001806   36.924814    2.938088
C    14.273211   39.390204    2.955303
C    28.513311   31.993327    2.922898
C    31.357956   24.594655    2.938052
C    32.784317   14.731178    2.957803
C     5.730292   29.527421    2.950937
C     7.157385   14.730918    2.943127
C     3.600053   25.825084    2.948358
C    26.372105   35.689175    2.924476
C    24.952373    6.096744    2.957614
C     9.287387   15.959999    2.936775
C     5.730304   27.055661    2.951940
C    18.544771   29.522287    2.982591
C     5.019991   25.825585    2.960099
C     3.599755   15.960976    2.955817
C    15.701073    2.395175    2.963492
C     7.157250   27.055720    2.959469
C    13.559377   13.493638    2.940492
C     7.870448   18.427102    2.940633
C     5.729896   24.595484    2.944437
C    10.001032   14.723694    2.941358
C     0.745456   15.961020    2.963538
C     9.291084   13.494269    2.962103
C    30.643608   13.495357    2.951498
C    27.085756   34.452925    2.924787
C     5.019743   15.960510    2.962126
C    12.138237   28.292592    2.986714
C     7.156815   19.663427    2.943166
C    32.784855   24.594609    2.947772
C    10.001662   12.264731    2.956151
C    28.514496   17.196479    2.938246
C    16.410420    1.165044    2.977663
C     7.867458   15.960597    2.956013
C     2.886316   24.588770    2.954030
C    29.224633   18.426686    2.951897
C    22.101422    3.631424    2.955773
C     1.459365   24.588559    2.955250
C    13.559762   38.154576    2.957453
C    12.139096   13.494378    2.959454
C    15.700819   39.390283    2.962747
C    26.376446    8.562709    2.960725
C    20.685375    1.165011    2.959205
C     9.288194   35.689229    2.943574
C    24.242082   36.919164    2.939624
C    14.273554    4.866990    2.965390
C     5.015782   23.359081    2.947584
C    26.372802   30.757328    2.937930
C    11.428914   36.924798    2.950190
C     7.156940   17.190478    2.944054
C     5.729985   22.123115    2.948175
C     7.871189   28.291904    2.968969
C    33.494869   15.960745    2.980111
C    17.831022    1.165048    2.969660
C    30.648043   20.893234    2.963150
C    31.357504   14.731398    2.959122
C     7.157147   29.527707    2.963914
C    27.086793    9.792511    2.950122
C     7.157363   31.986716    2.952856
C    31.358125   22.123070    2.955055
C    27.086346   31.993530    2.934597
C    19.971901    2.401196    2.965973
C     9.290914   28.292554    2.991417
C    22.815419    4.867199    2.958984
C    27.087649   14.724224    2.945960
C    15.700254   29.529048    2.971123
C    22.101324   38.154562    2.951649
C     2.886302   17.197297    2.962468
C    28.513528   12.265081    2.956332
C    18.544454    2.401186    2.970774
C     3.596188   23.358751    2.970145
C     5.730026   17.190451    2.948070
C    24.953111   30.757894    2.959360
C    13.563747    6.096688    2.975560
C    19.971738   39.384390    2.965810
C    16.414809    3.631306    2.970745
C    11.429370    9.792082    2.957272
C    24.957642   13.493836    2.939502
C    24.952355   35.689686    2.953758
C    33.498787   23.358728    2.962009
C     7.871043   33.222997    2.949869
C    11.429021   12.264645    2.959887
C     0.749325   23.358810    2.978137
C     1.459186   17.197474    2.967393
C    29.224048   13.494554    2.969847
C    26.375870   33.223061    2.952307
C    18.544453   39.384487    2.970838
C     5.729919   19.663650    2.949791
C    20.681441    3.631260    2.980296
C     5.019902   20.893488    2.968057
C    12.139425    8.562385    2.972134
C    14.272151   29.529445    2.971129
C    29.227906   15.960351    2.954582
C     5.016138   18.427182    2.952081
C    28.514198   14.724292    2.955413
C    22.105917   30.757658    2.983265
C     7.867423   30.757147    2.980071
C    18.545541   12.263509    2.953328
C    17.835257    3.631318    2.988044
C    32.784739   22.122893    2.967773
C    19.972798   12.263618    2.946736
C     2.885922   22.128731    2.969890
C    26.377137   13.494826    2.962570
C    22.815142   36.918962    2.952838
C    30.647571   15.960972    2.976585
C    15.701084    4.867190    2.974113
C    30.644575   18.427102    2.962720
C    20.681386   38.154577    2.976932
C     3.596480   18.427300    2.974768
C    16.414451   38.154534    2.968618
C    20.685691   30.757954    2.982239
C     1.459445   22.128847    2.974198
C    15.700959   12.257497    2.954865
C    31.358081   19.663202    2.967273
C    14.273013   12.257348    2.955041
C    32.784812   17.190735    2.975591
C     3.599862   20.893261    2.967930
C    24.242736    7.326609    2.966346
C    12.142893   11.028411    2.963613
C    10.001220   29.522147    2.987046
C     0.748985   18.427284    2.988035
C    17.834879   38.154643    2.985651
C    31.357998   17.190781    2.970772
C     2.886276   19.657370    2.970357
C    27.086916   12.264944    2.957834
C    11.428292   29.522316    2.988432
C     0.745309   20.893207    2.977834
C    33.494688   20.893157    2.989581
C    22.816785   12.257442    2.946294
C    14.273188   36.919155    2.969231
C    10.001467   34.453200    2.958770
C     1.459287   19.657315    2.975829
C    26.373271   11.028862    2.958065
C    33.498461   18.427124    2.979250
C    24.242525   31.987438    2.962405
C    24.956530    8.562129    2.964917
C    24.955896   33.223442    2.955988
C    32.784700   19.663317    2.978383
C     9.291079   33.223496    2.974738
C     9.287435   30.757654    2.979329
C    24.242520   34.459652    2.957188
C    24.243997   12.257414    2.948090
C    17.830906   30.758017    2.991888
C    12.142669   35.689263    2.964384
C    19.972008    4.861186    2.979999
C    22.106071    6.096838    2.987034
C    15.700816   36.918816    2.972735
C    18.544798    4.861241    2.983503
C    22.815805   31.987367    2.972891
C    19.971590   36.924815    2.974733
C    13.563178   11.027650    2.980349
C    16.410506   30.758165    3.001267
C    14.273491    7.326379    2.975506
C    22.105454   35.689399    2.978435
C    13.560111    8.562093    2.973954
C    10.001121   31.993746    2.975342
C    18.544440   36.924961    2.978989
C    11.429166   34.452931    2.967482
C    13.563091   35.689690    2.985814
C    24.953611   11.027917    2.972598
C    22.816001    7.326442    2.976866
C    12.142132   30.757872    2.988975
C    22.815380   34.459632    2.967546
C    13.562420   30.758650    3.000062
C    16.410818    6.096697    2.995441
C    20.685971    6.096644    2.982267
C    19.972117   31.994021    2.985580
C    24.243205    9.798096    2.968687
C    20.685179   35.689326    2.974688
C    22.102235   33.223424    2.976476
C    16.411303   11.028143    2.985383
C    11.428782   31.993886    2.982537
C    17.831255    6.096664    2.988196
C    22.106609   11.028065    2.972661
C    17.831956   11.027959    2.973578
C    20.686520   11.027618    2.960644
C    14.273440    9.798034    2.976865
C    18.544237   31.994196    2.989594
C    15.701034    7.326293    2.982173
C    16.410603   35.689362    2.993131
C    17.831151   35.689337    2.982887
C    12.139020   33.223402    2.993361
C    20.681994   33.223690    2.994193
C    15.700365   31.987556    2.993727
C    14.272712   34.459798    2.984261
C    19.972033   34.453203    2.981142
C    14.272823   31.987925    2.993828
C    22.816266    9.798030    2.971203
C    22.102523    8.562102    2.978491
C    13.559685   33.223799    2.989532
C    15.701313    9.798300    2.979977
C    15.700556   34.459715    2.985489
C    18.544283   34.453425    2.984866
C    19.972373    7.332067    2.986244
C    17.834390   33.223810    3.001061
C    18.544954    7.331948    2.988912
C    16.413777   33.223659    2.990430
C    16.414777    8.562044    2.983658
C    19.972828    9.791257    2.972115
C    18.544870    9.791378    2.978118
C    20.682336    8.561638    2.992270
C    17.835338    8.561781    2.997862
C    17.838023   20.897318    6.494514
C    17.841811   18.420119    6.450442
C    18.554140   19.652660    6.499858
C    15.702708   19.660745    6.530676
C    18.555372   22.136324    6.515709
C    19.992267   19.657580    6.516694
C    18.551323   17.189401    6.496467
C    15.699987   17.180484    6.525410
C    19.988859   17.192867    6.519555
C    16.414690   20.894802    6.504128
C    20.701931   18.420185    6.506723
C    20.707929   20.891510    6.532790
C    16.417156   18.419645    6.517139
C    15.702400   22.125615    6.562299
C    17.837983   15.950326    6.549483
C    19.990726   22.137647    6.563502
C    20.705076   15.946708    6.582361
C    18.554482   14.712828    6.629235
C    16.415213   15.950050    6.592711
C    16.420351   23.371363    6.544322
C    22.129886   18.423062    6.562218
C    13.554606   20.893038    6.588115
C    22.134754   20.892627    6.516651
C    20.704400   23.369092    6.555707
C    14.265515   22.127805    6.589373
C    13.552785   18.418184    6.561769
C    19.988483   14.711790    6.601050
C    22.132884   15.947444    6.591826
C    22.128275   23.368970    6.611416
C    14.267148   19.662453    6.558465
C    14.270441   17.182493    6.604684
C    17.843625   23.370922    6.529951
C    13.550162   23.369634    6.611521
C    22.847215   19.662175    6.547019
C    13.557823   15.948476    6.658280
C    22.846185   17.179419    6.587974
C    22.843467   22.126289    6.569119
C    15.701878   24.613949    6.559791
C    12.123025   20.891408    6.626882
C    11.409125   22.136003    6.632488
C    14.269443   14.717790    6.631209
C    24.273365   22.124185    6.563208
C    11.410105   19.650157    6.626392
C    12.118063   23.366045    6.619776
C    11.415414   17.180904    6.614865
C    20.708913   25.842694    6.611663
C    12.124516   18.416653    6.597862
C    14.266796   24.612681    6.605708
C    18.554050   24.602247    6.575367
C    24.983201   20.887623    6.574379
C    19.991383   24.599626    6.647497
C    15.700266   14.715227    6.643977
C     9.974057   19.649487    6.643696
C     9.971129   22.133401    6.662854
C    22.844018   24.612637    6.624538
C    24.275073   19.658005    6.577995
C    22.134833   25.842041    6.630412
C    12.134292   15.947687    6.659657
C    24.984976   23.367265    6.617043
C    16.418696   25.847994    6.536350
C    24.982642   18.421549    6.605747
C    17.841980   13.476696    6.608572
C    20.700857   13.478503    6.652658
C     0.747419    6.095561    6.611213
C     1.460722    4.861029    6.610865
C     0.750976    3.632467    6.601536
C    32.787756    4.867034    6.611940
C    33.500896    3.632529    6.612590
C    33.497645    6.095527    6.601447
C    24.270481   17.181426    6.611039
C     2.886731    4.860838    6.611111
C     9.978239   17.180268    6.604800
C     1.460369    7.329967    6.613613
C    32.788129    2.397645    6.616840
C     1.461142    2.403822    6.615729
C    24.268114   24.610501    6.625043
C     3.597223    3.632285    6.603146
C     2.887268    2.403816    6.616153
C    18.555811   12.245079    6.656876
C     3.599706    6.094835    6.611756
C    31.362206    4.866974    6.617386
C     2.886029    7.329357    6.614231
C    31.362134    2.397592    6.619888
C    17.839881   25.844068    6.593213
C     0.748046    1.168844    6.617654
C    30.649090    3.632499    6.620903
C    33.498009    1.168818    6.607579
C    32.787999    7.324269    6.619839
C     5.016601    3.632042    6.617023
C     0.750403    8.559054    6.609072
C     3.600399    1.168960    6.618752
C    30.652123    1.168870    6.612261
C    32.788134   39.395259    6.621643
C    26.396395   20.892091    6.618844
C    18.555637   27.076400    6.631474
C     1.461166   39.389313    6.618158
C     5.019789    1.169155    6.612178
C     5.730259    2.397269    6.622071
C     5.019078    6.094228    6.604452
C     2.887004   39.389725    6.619150
C    31.362057   39.395429    6.624497
C    33.500787    8.559241    6.623889
C     5.730004    4.865892    6.616358
C     9.257473   20.892077    6.636736
C    30.652259    6.095779    6.614451
C    26.400515   23.365868    6.616560
C    29.232944    1.168845    6.626857
C    29.229880    3.632065    6.617380
C     0.750934   38.160804    6.609326
C     9.261144   23.367845    6.630785
C    33.501025   38.160670    6.621344
C     3.595313    8.557962    6.611415
C    28.519653    2.403672    6.630206
C    22.842032   14.717652    6.643572
C    31.362433    7.324302    6.627235
C     7.156698    2.397438    6.625958
C    16.417724   13.473442    6.616438
C    30.649150   38.160661    6.628294
C    13.555935   13.474771    6.693813
C    19.987455   27.076404    6.667036
C     5.730033   39.396079    6.630451
C     1.459345    9.788012    6.628396
C     9.264807   18.415068    6.634957
C     3.596839   38.161156    6.613098
C    28.519773   39.389423    6.630863
C    32.787967   36.926191    6.624695
C     2.885131    9.787330    6.629134
C     1.460610   36.932146    6.624840
C    31.362529   36.926204    6.629056
C     5.728627    7.322021    6.624134
C    29.230018   38.161022    6.621677
C     7.867542    1.169053    6.621241
C     7.156248    4.865813    6.622459
C     5.016116   38.161684    6.630714
C     7.156606   39.396266    6.634684
C    27.108642   22.131915    6.626281
C     2.886359   36.932616    6.626403
C     5.014311    8.557148    6.628570
C    28.520112    4.860484    6.639243
C    33.497573   35.697203    6.617952
C     7.870363    3.631320    6.626602
C     0.747193   35.697288    6.630030
C    27.093627    2.403430    6.639117
C    29.233624    6.095230    6.638722
C    27.093961   39.389624    6.638787
C    32.787855    9.794605    6.636300
C    32.788299   34.467921    6.636222
C    26.380205    1.168892    6.642954
C    30.652928   35.697212    6.627734
C     9.287073    1.168943    6.640376
C    11.409791   24.602870    6.665403
C    24.977526   25.838661    6.624280
C    28.520568   36.932499    6.645033
C     1.459861   34.461998    6.636457
C     0.746253   11.024218    6.637679
C    15.699894   12.235232    6.655690
C    33.500696   33.232089    6.639203
C    31.362662   34.467901    6.641981
C     0.750193   33.232140    6.628831
C    30.649489    8.559245    6.641727
C     3.599221   35.698075    6.634994
C    22.123816   13.480454    6.672685
C     7.154904    7.321785    6.631701
C     7.870246   38.162243    6.642416
C     5.729466   36.927561    6.638263
C    29.234353   35.697650    6.649429
C    26.397169   18.422270    6.625826
C     7.866207    6.093124    6.620239
C    13.553049   25.847271    6.618450
C    26.384137   38.161241    6.640406
C     9.290089    3.631113    6.626764
C     2.885713   34.462641    6.640119
C    26.383389    3.631980    6.639459
C    32.788111   31.996067    6.643306
C     7.838641   20.892172    6.640613
C     3.597163   11.022627    6.636760
C    33.497028   11.024540    6.633170
C    27.106257   24.596396    6.640057
C    24.975323   15.953346    6.631881
C    19.988679   12.246789    6.693358
C    10.001358    2.403263    6.643853
C    10.001479   39.390070    6.648343
C    27.107116   19.655205    6.640033
C    27.093904    4.860264    6.651500
C    27.094765   36.932887    6.655609
C    24.960818    1.168693    6.647254
C     1.458761   32.002523    6.647631
C    14.268412   12.237539    6.685954
C     5.726375    9.791539    6.638837