==================================================================================
It's Tue Jun 18 11:21:42 BST 2024.
*** Starting onetep_launcher (node red6102, PIDs 2336298 2336299 2336300 2336301 2336302 2336303 2336304 2336305 2336306 2336307 2336308 2336309 2336310 2336311 2336312 2336313)...
    - ONETEP arguments: graphite.dat
    - Current directory: /home/ab2g19/127/0.0
    - Launcher executable directory: /iridisfs/home/ab2g19/onetep/utils
    - (-e) ONETEP executable specified through command-line: /home/ab2g19/onetep/bin/onetep.iridis6.ifort24.omp.scalapack
      ... trying /home/ab2g19/onetep/bin/onetep.iridis6.ifort24.omp.scalapack
          -> looks OK
*** Setting up environment...
    - (-s) Process stack size: unlimited
    - (-t) OMP_NUM_THREADS: 12
    - (-o) OMP_STACKSIZE: 64M
    - (-c) Maximum core file size: 2048000
    - (-r) resmon_interval: 5
    - (-d) decfort_dump_flag: n
    - (-m) I_MPI_OFA_TRANSLATION_CACHE: 0
    - (-m) I_MPI_DAPL_TRANSLATION_CACHE: 0
    - (-m) I_MPI_DAPL_UD_TRANSLATION_CACHE: 0
*** Starting ONETEP...
    - /home/ab2g19/onetep/bin/onetep.iridis6.ifort24.omp.scalapack graphite.dat
=================================================================================
_________________________________________________________________________________
MPI startup(): I_MPI_DAPL_UD_TRANSLATION_CACHE variable has been removed from the product, its value is ignored

MPI startup(): I_MPI_OFA_TRANSLATION_CACHE variable has been removed from the product, its value is ignored

MPI startup(): I_MPI_DAPL_TRANSLATION_CACHE variable has been removed from the product, its value is ignored

 +---------------------------------------------------------------+
 |                                                               |
 |        ####### #     # ####### ####### ####### ######         |
 |        #     # ##    # #          #    #       #     #        |
 |        #     # # #   # #          #    #       #     #        |
 |        #     # #  #  # #####      #    #####   ######         |
 |        #     # #   # # #          #    #       #              |
 |        #     # #    ## #          #    #       #              |
 |        ####### #     # #######    #    ####### #              |
 |                                                               |
 |        Linear-Scaling Ab Initio Total Energy Program          |
 |                                                               |
 |          Release for academic collaborators of ODG            |
 |                                             Version 7.1.37    |
 | Remote: https://github.com/onetep-devel/onetep.git            |
 | Local branch: master                                          |
 | Commit ID: 8b9443aa76c73904727045853ae6caf51c73aeb2           |
 | Date: Fri Jun 14 15:36:49 2024 +0200                          |
 | Working tree clean                                            |
 |                                                               |
 +---------------------------------------------------------------+
 |                                                               |
 |  Authors:                                                     |
 |  Jacek Dziedzic, Peter D. Haynes, Nicholas D. M. Hine,        |
 |  Arash A. Mostofi, Mike C. Payne and Chris-Kriton Skylaris    |
 |                                                               |
 |  Contributors:                                                |
 |  J. Aarons, L. Andrinopoulos, P. W. Avraam, R. A. Bell,       |
 |  A. Bhandari, G. A. Bramley, R. J. Charlton, S. J. Clark,     |
 |  R. J. Clements, G. C. Constantinescu, F. Corsetti,           |
 |  N. Corsini, O. Dieguez, S. M. M. Dubois, K. K. B. Duff,      |
 |  J. M. Escartin, M. Escobar Azor, A. Greco,                   |
 |  H. Helal, Q. O. Hill, L. P. Lee, J.-H. Li,                   |
 |  T. Li, E. B. Linscott, G. Moynihan, D. D. O`Regan,           |
 |  O. K. Okan, M. J. S. Phipps, C. J. Pickard,                  |
 |  J. C. A. Prentice, M. I. J. Probert, L. E. Ratcliff,         |
 |  M. Robinson, A. Ruiz Serrano, M. dos Santos Dias,            |
 |  J. S. Spencer, E. W. Tait, G. Teobaldi, D. Turban,           |
 |  V. Vitale, K. A. Wilkinson, C. Weber, J. C. Womack,          |
 |  Chengcheng Xiao, N. Yeung and T. J. Zuehlsdorff              |
 |                                                               |
 |                                   Copyright (c) 2004-2024     |
 |                                                               |
 |  Please cite:                                                 |
 |  "The ONETEP linear-scaling density functional theory program"|
 |   J. Chem. Phys. 152(17) 174111 (2020)                        |
 |                                                               |
 |          in all publications arising from your use of ONETEP. |
 |                                                               |
 +---------------------------------------------------------------+
 |                                                               |
 |   ONETEP is based on developments described in the following  |
 |   publications:                                               |
 |                                                               |
 |  "Nonorthogonal generalized Wannier function pseudopotential  |
 |   plane-wave method".                                         |
 |   C.-K. Skylaris, A. A. Mostofi, P. D. Haynes, O. Dieguez,    |
 |   M. C. Payne.                                                |
 |   Phys. Rev. B 66 035119 (2002).                              |
 |                                                               |
 |  "Preconditioned iterative minimization for linear-scaling    |
 |   electronic structure calculations".                         |
 |   A. A. Mostofi, P. D. Haynes, C.-K. Skylaris, M. C. Payne.   |
 |   J. Chem. Phys. 119(17), pp.8842-8848 (2003).                |
 |                                                               |
 |  "Total-energy calculations on a real space grid with         |
 |   localized functions and a plane-wave basis".                |
 |   A. A. Mostofi, C.-K. Skylaris, P. D. Haynes, M. C. Payne.   |
 |   Comput. Phys. Commun. 147, pp.788-802 (2002).               |
 |                                                               |
 |  "Accurate kinetic energy evaluation in electronic structure  |
 |   calculations with localized functions on real space grids"  |
 |   C.-K. Skylaris, A. A. Mostofi, P. D. Haynes, C. J. Pickard, |
 |   M. C. Payne.                                                |
 |   Comput. Phys. Commun. 140, pp.315-322 (2001).               |
 |                                                               |
 |  "Accurate ionic forces and geometry optimization in linear-  |
 |   scaling density-functional theory with local orbitals"      |
 |   N. D. M. Hine, M. Robinson, P. D. Haynes, C.-K. Skylaris,   |
 |   M. C. Payne, and A. A. Mostofi.                             |
 |   Phys. Rev. B 83 195102 (2011).                              |
 |                                                               |
 +---------------------------------------------------------------+

Job started: 18-06-2024 11:21 (+0100)
 
Reading parameters from file "graphite.dat" ...... done

If your calculation crashes here, before "Checking processes and threads..."
is displayed, then your stack size is insufficient.
If so, use "ulimit -s unlimited" at runtime.
You can disable this check with "check_stack_size F".

Checking processes and threads...
   Determining the default number of threads...
      No default threads set at compilation time: defaulting to 1.
      OpenMP library call suggests 12 threads.
      Hybrid MPI-OpenMP compilation detected.
      Number of MPI processes > 1.
      OMP_NUM_THREADS environment variable present and
      its value matches the one obtained from the OpenMP library call.
      Using this value as default.
      Default threads: 12
      Default applies to threads_max and threads_num_fftboxes.
      Settings in the input file override this default.
   ... done

   Running with 128 MPI processes.
   There are 16 MPI processes running on the same node as the root process.
   Each MPI process is using: 
               1 threads for simulation cell FFTs.
               1 threads for threaded FFT box operations.
              12 threads for loops over batched FFT box operations.
              12 threads in other parallel regions.
   MPI Interface: S1 (use mpi_f08) (-DMPI -DUSE_MPI_F08).
   MPI_ASYNC_PROTECTS_NONBLOCKING: Yes. MPI_SUBARRAYS_SUPPORTED: Yes.
   FFTW Interface: OMP-capable and MODERN. (-DUSE_MODERN_FFTW specified).
   GPU Interface: None.
... done

Basic input checks...
Resetting ngwf_cg_rotate to TRUE for EDFT calculations

WARNING: The number of FFT boxes in a batch is not a multiple of the number of
OpenMP threads. Consider changing fftbox_batch_size.
... done

Reading geometry and species blocks from file "graphite.dat" ...
  Reading POSITIONS geometry from str.xyz

  <species_atomic_set> block not found: NGWF initialisation set to SOLVE
IS: Dielectric excluded regions:
    - NONE.
IS: Assigning soft sphere radii for soft sphere solvation...
IS: No soft sphere radii specified. Default Alvarez radii used for all atoms.

----------- SOFT SPHERE RADII -----------
Li  5.333
C   4.442
-----------------------------------------

    
  Number of PPD points along a3 set to 1.  This is 
  the default value, it may have been provided also in the input file.
... done


--------------------------------------------------------------------------------
---------------------------------- INPUT FILE ----------------------------------
--------------------------------------------------------------------------------

task geometryoptimization                                                       
geom_method LBFGS                                                               
geom_continuation T                                                             
write_xyz T                                                                     
edft_grand_canonical T                                                          
edft_reference_potential  -4.42 eV                                              
edft_electrode_potential 0.0 V                                                  
edft_nelec_thres 0.000001                                                       
is_dielectric_function soft_sphere                                              
is_implicit_solvent T                                                           
is_smeared_ion_rep T                                                            
is_include_apolar T                                                             
is_solvation_properties T                                                       
is_pbe                    full                                                  
is_pbe_temperature        298.15                                                
is_pbe_bc_debye_screening T                                                     
is_pbe_neutralisation_scheme counterions_auto                                   
is_pbe_energy_tolerance 1E+50                                                   
is_bc_coarseness 5                                                              
is_bc_threshold 1E-9                                                            
is_bulk_permittivity 90.7                                                       
is_solvent_surf_tension 0.0506 N/m                                              
%block sol_ions                                                                 
Li  +1 1.0                                                                      
PF6 -1 1.0                                                                      
%endblock sol_ions                                                              
is_steric_pot_type M                                                            
is_hc_steric_dens_isovalue  0.001                                               
is_hc_steric_smearing         0.4 bohr                                          
is_steric_write T                                                               
%block species_solvent_radius                                                   
Li 3.0                                                                          
C 3.0                                                                           
%endblock species_solvent_radius                                                
multigrid_bc:   P P P                                                           
ion_ion_bc:     P P P                                                           
pspot_bc:       P P P                                                           
smeared_ion_bc: P P P                                                           
mg_max_iters_vcycle 500                                                         
mg_vcyc_smoother_iter_pre 4                                                     
mg_vcyc_smoother_iter_post 4                                                    
mg_max_res_ratio 1000.0                                                         
mg_max_iters_newton 300                                                         
edft                    : T                                                     
edft_smearing_width     : 0.1 eV                                                
spin                    : 0.0                                                   
edft_spin_fix           : 2                                                     
spin_polarized          : T                                                     
cutoff_energy :  1000 eV                                                        
kernel_cutoff : 1000 bohr                                                       
xc_functional PBE                                                               
dispersion 4                                                                    
output_detail VERBOSE                                                           
do_properties T                                                                 
cube_format F                                                                   
dx_format T                                                                     
write_denskern T                                                                
write_tightbox_ngwfs T                                                          
write_hamiltonian T                                                             
%block species                                                                  
Li Li 3  5  8.0                                                                 
C  C  6  4  8.0                                                                 
%endblock species                                                               
%block species_pot                                                              
Li '/home/ab2g19/pseudo/Li.usp'                                                 
C  '/home/ab2g19/pseudo/C.usp'                                                  
%endblock species_pot                                                           
%BLOCK LATTICE_CART                                                             
ang                                                                             
34.1692060000000026    0.0000000000000000    0.0000000000000000                 
0.0000000000000000   39.4551999999999978    0.0000000000000000                  
0.0000000000000000    0.0000000000000000  100.0000000000000000                  
%ENDBLOCK LATTICE_CART                                                          
positions_xyz_file str.xyz                                                      
     Hash =  -000006682830888125581304
edft_maxit 35                                                                   

--------------------------------------------------------------------------------
-------------------------------- END INPUT FILE --------------------------------
--------------------------------------------------------------------------------


 
 ESDF WARNING(1
 ): "ispbeenergytolerance" (esdf_physical) has no units. Assume "hartree".
<<<<<<<<<<<<<<<<<<<<<<<<<<<<<<<<< Full system >>>>>>>>>>>>>>>>>>>>>>>>>>>>>>>>>>
<<<<<<<<<<<<<<<<<<<<<<<<< Pseudopotential information >>>>>>>>>>>>>>>>>>>>>>>>>>
File: /home/ab2g19/pseudo/Li.usp [ 2001 points up to Gmax=  52.9 (1/bohr)]
  Atomic number:  3;  ionic charge:  3.000000
    Shell 1: l = 0; rc = 1.19 bohr
    Shell 2: l = 0; rc = 1.25 bohr
File: /home/ab2g19/pseudo/C.usp [ 2001 points up to Gmax=  52.9 (1/bohr)]
  Atomic number:  6;  ionic charge:  4.000000
    Shell 1: l = 0; rc = 1.19 bohr
  Core charge supplied for Nonlinear Core Corrections
<<<<<<<<<<<<<<<<<<<<<<<<<<<<<<<<<<<<<<<<>>>>>>>>>>>>>>>>>>>>>>>>>>>>>>>>>>>>>>>>

-------------------------- Atom counting information ---------------------------
Symbol    Natoms    Nngwfs    Nprojs
  Li       191       955       382
  C       1024      4096      1024
.......   ......    ......    ......
Totals:   1215      5051      1406
--------------------------------------------------------------------------------

=============================== PSINC grid sizes ===============================
                      Simulation cell:  143 x 165 x 416
                              FFT-box:  117 x 117 x 117
                                  PPD:   11 x   5 x   1
Grid space d1=  0.451541549484a0 (KE cutoff=  37.25706Eh =1013.81615eV)
Grid space d2=  0.451875894456a0 (KE cutoff=  37.20195Eh =1012.31645eV)
Grid space d3=  0.454261090044a0 (KE cutoff=  36.81230Eh =1001.71359eV)
================================================================================
  
WARNING in cell_grid_distribute:
Average of less than one 23-slab per proc, so workload cannot be
equally balanced between procs.

********************* Fourier parallelisation information **********************
       Coarse grid (whole simulation cell) dimensions:    143   165   416
          Real-space ('12') slabs/proc (min max mean):      3     4     3
         Recip-space ('23') slabs/proc (min max mean):      0     1     0
********************************************************************************

********************* Fourier parallelisation information **********************
       Double grid (whole simulation cell) dimensions:    286   330   832
          Real-space ('12') slabs/proc (min max mean):      6     7     6
         Recip-space ('23') slabs/proc (min max mean):      1     2     1
********************************************************************************

********************* Fourier parallelisation information **********************
         Fine grid (whole simulation cell) dimensions:    288   336   832
          Real-space ('12') slabs/proc (min max mean):      6     7     6
         Recip-space ('23') slabs/proc (min max mean):      1     2     1
         Grid scale modified to satisfy multigrid solver grid constraints
         Grid scale values after modifification:         2.01  2.04  2.00
********************************************************************************
ONETEP fine grid is 288 x 336 x 832 gridpoints, 64.5704 x 74.5595 x 188.9726 bohr.
FD multigrid is     288 x 336 x 832 gridpoints, 64.5704 x 74.5595 x 188.9726 bohr.


Atom SCF Calculation for Li : Z (AE atom) =   3 : Z (PS atom) =   3
Config String:
Orbitals (num,occ):  3     2.00 1.00 0.00
Orbitals   (num,l):  3        0    0    1
Real-space Grid (nr,dr,rmax): 1343    0.0059612519    8.0000000000
Spherical Bessel Basis (nsws,lmax,cutoff):   37    1  220.4959463253
Confining potential (l,width,scale):  0    3.0000000000  100.0000000000
Confining potential (l,width,scale):  1    3.0000000000  100.0000000000
  1         -3.7050169094   -5.2301177776    2.5388568852   -0.9989538802
  2         -6.0510920273   -4.2679357854    3.2724001845   -1.3422946715
  3         -6.7975021434   -3.8722499620    3.6648237887   -1.5325279919
  4         -7.0147472228   -3.7673066376    3.7864613280   -1.5966989055
  5         -7.0774132854   -3.7446783348    3.8157063634   -1.6161454686
  6         -7.0951992563   -3.7420177453    3.8204515040   -1.6217593843
  7         -7.1001226024   -3.7430426481    3.8200527077   -1.6233132433
  8         -7.1014239576   -3.7441529610    3.8191274553   -1.6237164860
  9         -7.1017352306   -3.7448434699    3.8184905098   -1.6238077213
 10         -7.1017916056   -3.7452114113    3.8181373932   -1.6238209669
 11         -7.1017908912   -3.7453946820    3.8179578223   -1.6238181917
 12         -7.1017822190   -3.7454828903    3.8178702968   -1.6238141227
 13         -7.1017768840   -3.7455162316    3.8178369316   -1.6238119017
 14         -7.1017732849   -3.7455353767    3.8178176959   -1.6238104459
 15         -7.1017709700   -3.7455463461    3.8178066371   -1.6238095253
 16         -7.1017695244   -3.7455526225    3.8178002910   -1.6238089565
 17         -7.1017686390   -3.7455562110    3.8177966534   -1.6238086105
 18         -7.1017681040   -3.7455582619    3.8177945697   -1.6238084022
 19         -7.1017677838   -3.7455594341    3.8177933764   -1.6238082778
 20         -7.1017675934   -3.7455601042    3.8177926929   -1.6238082039
 21         -7.1017674808   -3.7455604874    3.8177923014   -1.6238081602
 22         -7.1017674145   -3.7455607066    3.8177920771   -1.6238081344
Atom SCF converged after  22 iterations to a total energy of     -7.10176741

Atom SCF Calculation for C  : Z (AE atom) =   6 : Z (PS atom) =   4
Config String:
Orbitals (num,occ):  2     2.00 2.00
Orbitals   (num,l):  2        0    1
Real-space Grid (nr,dr,rmax): 1343    0.0059612519    8.0000000000
Spherical Bessel Basis (nsws,lmax,cutoff):   37    1  220.4959463253
Confining potential (l,width,scale):  0    3.0000000000  100.0000000000
Confining potential (l,width,scale):  1    3.0000000000  100.0000000000
  1         -5.8177092822   -1.2555419264    4.5135233515   -1.7471920893
  2         -5.6032261188   -1.3440047989    4.4246587726   -1.7090653419
  3         -5.5936068668   -1.3561735374    4.4140765627   -1.7034094417
  4         -5.5958505747   -1.3587284552    4.4121342699   -1.7022848669
  5         -5.5969687665   -1.3601698222    4.4109982405   -1.7017057890
  6         -5.5975400979   -1.3609792837    4.4103423276   -1.7013975981
  7         -5.5978435204   -1.3614297943    4.4099696476   -1.7012314972
  8         -5.5980096069   -1.3616786122    4.4097605138   -1.7011416075
  9         -5.5981021113   -1.3618152853    4.4096441572   -1.7010929151
 10         -5.5981539939   -1.3618900852    4.4095797860   -1.7010665406
 11         -5.5981831160   -1.3619309228    4.4095443105   -1.7010522599
 12         -5.5981994243   -1.3619531807    4.4095248124   -1.7010445305
 13         -5.5982085235   -1.3619652972    4.4095141175   -1.7010403487
 14         -5.5982135796   -1.3619718867    4.4095082606   -1.7010380870
 15         -5.5982163780   -1.3619754676    4.4095050573   -1.7010368642
 16         -5.5982179208   -1.3619774123    4.4095033073   -1.7010362032
 17         -5.5982187685   -1.3619784678    4.4095023522   -1.7010358460
 18         -5.5982192328   -1.3619790404    4.4095018314   -1.7010356530
 19         -5.5982194864   -1.3619793509    4.4095015476   -1.7010355488
 20         -5.5982196245   -1.3619795192    4.4095013931   -1.7010354925
 21         -5.5982196995   -1.3619796104    4.4095013090   -1.7010354621
Atom SCF converged after  21 iterations to a total energy of     -5.59821970

BC: Task: GEOMETRYOPTIMIZATION
BC: +++++++++++++++ Summary of boundary conditions ++++++++++++++
BC: |       Component       |     Keyword     |   Periodicity   |
BC: |                       |                 |     X  Y  Z [1] |
BC: |-----------------------------------------------------------|
BC: | Ion-ion               | ion_ion_bc [2]  |     P  P  P     |
BC: | Local pseudopotential | pspot_bc [3]    |     P  P  P     |
BC: | Multigrid solver      | multigrid_bc    |     P  P  P     |
BC: | Smeared ions          | smeared_ion_bc  |     P  P  P     |
BC: | Van der Waals         | vdw_bc          |     P  P  P     |
BC: +++++++++++++++++++++++++++++++++++++++++++++++++++++++++++++
BC: P: Periodic, O: Open.
BC: [1] Not strictly along X, Y, Z but rather along lattice vectors A1, A2, A3.
BC: [2] Also affected by: pbc_correction_cutoff, cutoff_coulomb_type,
BC:     is_smeared_ion_rep, is_implicit_solvent, openbc_ion_ion.
BC: [3] Also affected by: is_smeared_ion_rep, is_implicit_solvent, openbc_pspot.

WARNING: The number of FFT boxes in a batch is not a multiple of the number of
OpenMP threads. Consider changing fftbox_batch_size.

================================================================================
<<<<<<<<<<<<<<<< Resuming previous ONETEP Geometry Optimisation >>>>>>>>>>>>>>>>
================================================================================

 Geometry Optimisation: output file is "graphite.geom"
 
 Reading continuation file "graphite.continuation" ...done
 Geometry Optimisation: read_tightbox_ngwfs parameter over-ridden to TRUE
 Geometry Optimisation: read_hamiltonian parameter over-ridden to T
 
                           -------------------------------
                                     Cell Contents
                           -------------------------------
 
            xxxxxxxxxxxxxxxxxxxxxxxxxxxxxxxxxxxxxxxxxxxxxxxxxxxxxxxxxxxx
            x  Element    Atom      Absolute co-ordinates of atoms     x
            x            Number        x           y           z       x
            x----------------------------------------------------------x
            x    Li        1        4.096627    2.221097    8.943757   x
            x    Li        2        4.096098   11.517928    8.932739   x
            x    Li        3        4.096425   20.815124    8.997862   x
            x    Li        4        4.090715   30.186453    9.122011   x
            x    Li        5        4.088141   39.458323    9.155962   x
            x    Li        6        4.089259   48.805665    9.099828   x
            x    Li        7        4.091795   58.159630    9.037725   x
            x    Li        8        4.093233   67.431573    8.982915   x
            x    Li        9       20.254139    2.220371    9.031938   x
            x    Li       10       20.256821   11.508933    9.058696   x
            x    Li       11       20.262175   20.812560    9.106594   x
            x    Li       12       20.273860   30.165181    9.034369   x
            x    Li       13       20.266423   39.472665    9.023701   x
            x    Li       14       20.257579   48.811634    9.093585   x
            x    Li       15       20.243574   58.178108    9.160857   x
            x    Li       16       20.261496   67.429465    9.114214   x
            x    Li       17       36.413550    2.219795    9.138883   x
            x    Li       18       36.415769   11.514955    9.180745   x
            x    Li       19       36.451268   20.800205    9.126457   x
            x    Li       20       36.431489   30.141618    8.900228   x
            x    Li       21       36.452465   39.473398    8.810333   x
            x    Li       22       36.453178   48.805266    8.998449   x
            x    Li       23       36.410024   58.182883    9.165926   x
            x    Li       24       36.413904   67.427914    9.168514   x
            x    Li       25       52.532062    2.219831    8.985906   x
            x    Li       26       52.531529   11.510647    9.029758   x
            x    Li       27       52.522118   20.824526    9.111378   x
            x    Li       28       52.529794   30.182172    9.091512   x
            x    Li       29       52.538652   39.457321    9.021579   x
            x    Li       30       52.529046   48.806551    9.025703   x
            x    Li       31       52.533986   58.159087    9.069515   x
            x    Li       32       52.530262   67.432563    9.043476   x
            x    Li       33       12.174231    6.841156    8.957478   x
            x    Li       34       12.169213   16.189453    8.996477   x
            x    Li       35       12.163799   25.464547    9.065758   x
            x    Li       36       12.153694   34.813497    9.085334   x
            x    Li       37       12.150531   44.165260    9.080694   x
            x    Li       38       12.166241   53.463429    9.110856   x
            x    Li       39       12.176377   62.800795    9.081120   x
            x    Li       40       12.173629   72.134992    8.996504   x
            x    Li       41       28.348027    6.846141    9.129766   x
            x    Li       42       28.344426   16.175608    9.155516   x
            x    Li       43       28.310171   25.483729    9.061793   x
            x    Li       44       28.309566   34.815545    8.872074   x
            x    Li       45       28.305938   44.134333    8.921959   x
            x    Li       46       28.311561   53.482883    9.064702   x
            x    Li       47       28.347619   62.817600    9.183218   x
            x    Li       48       28.346425   72.117769    9.130829   x
            x    Li       49       44.471241    6.844066    9.092713   x
            x    Li       50       44.468507   16.196722    9.155737   x
            x    Li       51       44.502058   25.465159    9.078106   x
            x    Li       52       44.524441   34.799006    8.912217   x
            x    Li       53       44.490775   44.204850    8.943139   x
            x    Li       54       44.513055   53.443131    9.043325   x
            x    Li       55       44.476352   62.810715    9.135771   x
            x    Li       56       44.473587   72.121376    9.087369   x
            x    Li       57       60.591776    6.843217    8.940760   x
            x    Li       58       60.596751   16.191355    8.984951   x
            x    Li       59       60.590279   25.484967    9.096871   x
            x    Li       60       60.593451   34.814991    9.156573   x
            x    Li       61       60.594302   44.166441    9.112814   x
            x    Li       62       60.593277   53.448170    9.055167   x
            x    Li       63       60.594566   62.800727    9.009635   x
            x    Li       64       60.591450   72.128085    8.961625   x
            x    C        65       33.696263   39.482243    5.292796   x
            x    C        66       35.044729   41.819499    5.308550   x
            x    C        67       35.045403   37.144851    5.287633   x
            x    C        68       39.093666   39.482264    5.298774   x
            x    C        69       37.743785   41.819524    5.310668   x
            x    C        70       37.744222   37.144354    5.290989   x
            x    C        71       31.010987   39.482581    5.328645   x
            x    C        72       41.777747   39.482015    5.361214   x
            x    C        73       33.702819   44.144166    5.375766   x
            x    C        74       39.084987   44.144454    5.381745   x
            x    C        75       33.703151   34.819005    5.329376   x
            x    C        76       39.086523   34.818804    5.344224   x
            x    C        77       29.668169   41.808388    5.335489   x
            x    C        78       31.017195   44.144555    5.361307   x
            x    C        79       29.668566   37.156626    5.315730   x
            x    C        80       43.118768   41.807779    5.375161   x
            x    C        81       41.769811   44.143646    5.380012   x
            x    C        82       31.017765   34.819304    5.317797   x
            x    C        83       43.119552   37.156143    5.354164   x
            x    C        84       41.771243   34.819141    5.351406   x
            x    C        85       35.044926   46.470356    5.411698   x
            x    C        86       37.742537   46.469779    5.403774   x
            x    C        87       35.045819   32.492776    5.338208   x
            x    C        88       37.743721   32.493067    5.342562   x
            x    C        89       26.970042   41.807976    5.368262   x
            x    C        90       26.970264   37.157083    5.348978   x
            x    C        91       45.814924   41.807056    5.400755   x
            x    C        92       43.117561   46.480770    5.405761   x
            x    C        93       29.668928   46.481368    5.416708   x
            x    C        94       25.628557   39.482518    5.403302   x
            x    C        95       45.815827   37.156888    5.377620   x
            x    C        96       29.669119   32.482062    5.357981   x
            x    C        97       25.620405   44.144627    5.418717   x
            x    C        98       39.091485   48.806399    5.447830   x
            x    C        99       43.118915   32.482013    5.388171   x
            x    C       100       45.815185   46.480206    5.413174   x
            x    C       101       47.163992   44.142955    5.414088   x
            x    C       102       47.157219   39.482072    5.424195   x
            x    C       103       33.696213   48.805753    5.474770   x
            x    C       104       26.970053   46.481613    5.439806   x
            x    C       105       41.775757   48.805607    5.463570   x
            x    C       106        1.407463   11.523416    5.364961   x
            x    C       107        2.756872   13.858789    5.370694   x
            x    C       108        5.453764   13.858550    5.374791   x
            x    C       109        2.756846    9.188064    5.360740   x
            x    C       110       31.011186   48.805348    5.500465   x
            x    C       111       63.294202   11.523357    5.396450   x
            x    C       112        5.453279    9.187975    5.364285   x
            x    C       113        6.802808   11.523325    5.372894   x
            x    C       114       25.620633   34.819763    5.379458   x
            x    C       115       39.092699   30.156455    5.388104   x
            x    C       116       33.697101   30.156913    5.386565   x
            x    C       117        1.414096   16.183092    5.409078   x
            x    C       118       61.951370    9.198802    5.374653   x
            x    C       119        1.413973    6.863341    5.382849   x
            x    C       120       63.300785    6.863381    5.366017   x
            x    C       121       61.951573   13.847804    5.396215   x
            x    C       122        6.796597   16.183088    5.415539   x
            x    C       123        9.486789   11.522861    5.411667   x
            x    C       124        6.796053    6.863326    5.388793   x
            x    C       125       63.300577   16.183268    5.402948   x
            x    C       126       26.970256   32.482008    5.384434   x
            x    C       127       59.255574    9.198808    5.386834   x
            x    C       128        9.480164    6.863020    5.378220   x
            x    C       129        2.757224   18.508303    5.408444   x
            x    C       130        2.756942    4.538218    5.365828   x
            x    C       131       10.829512    9.198468    5.392608   x
            x    C       132       22.944050   39.482726    5.445447   x
            x    C       133        5.453649   18.508137    5.410972   x
            x    C       134        5.453557    4.538123    5.369051   x
            x    C       135       61.951641    4.527309    5.366627   x
            x    C       136       31.011921   30.157837    5.426617   x
            x    C       137       57.905774    6.863189    5.382682   x
            x    C       138        9.480839   16.182712    5.414841   x
            x    C       139       10.829605   13.847255    5.414592   x
            x    C       140       59.255182    4.527024    5.371425   x
            x    C       141       22.937288   44.143638    5.505618   x
            x    C       142       41.776803   30.157436    5.443057   x
            x    C       143       47.165063   34.819688    5.397276   x
            x    C       144        1.407721    2.202209    5.372674   x
            x    C       145       57.913219   11.523060    5.434382   x
            x    C       146       10.829015    4.526858    5.383899   x
            x    C       147       59.255785   13.847416    5.417949   x
            x    C       148       63.294341    2.202395    5.391859   x
            x    C       149       13.526205    9.198486    5.416068   x
            x    C       150        6.802487    2.202011    5.381057   x
            x    C       151       49.847274   44.141727    5.465746   x
            x    C       152       47.156120   48.805265    5.465199   x
            x    C       153       45.816432   32.481936    5.410139   x
            x    C       154        9.486590    2.201909    5.408213   x
            x    C       155       13.526359    4.526634    5.400424   x
            x    C       156       57.912731    2.202148    5.402447   x
            x    C       157       55.222604    6.862991    5.426015   x
            x    C       158       21.595674   41.818981    5.489164   x
            x    C       159        1.408504   20.844091    5.447519   x
            x    C       160        2.756926   74.425889    5.386451   x
            x    C       161       14.875534    6.862808    5.417712   x
            x    C       162       61.952254   18.519265    5.438516   x
            x    C       163       61.951612   74.437120    5.381256   x
            x    C       164        5.453176   74.425905    5.391894   x
            x    C       165       37.742547   51.143114    5.510159   x
            x    C       166        6.802484   20.844041    5.448124   x
            x    C       167       49.841056   39.481786    5.438489   x
            x    C       168       35.044223   51.142624    5.528119   x
            x    C       169       59.255556   74.437016    5.385315   x
            x    C       170       13.526265   13.846817    5.445926   x
            x    C       171       53.880197    4.538061    5.409109   x
            x    C       172       43.116859   51.130649    5.484059   x
            x    C       173       55.228895    2.202140    5.400018   x
            x    C       174        1.413746   72.101628    5.417208   x
            x    C       175       10.829400   18.518853    5.447763   x
            x    C       176       14.868313   11.522564    5.470466   x
            x    C       177       63.300811   72.101709    5.394116   x
            x    C       178       22.937401   34.821047    5.463698   x
            x    C       179       25.629375   48.805610    5.540635   x
            x    C       180       55.229597   11.522633    5.444817   x
            x    C       181       21.595350   37.146292    5.468912   x
            x    C       182       53.880290    9.187968    5.438959   x
            x    C       183       63.295315   20.843447    5.487901   x
            x    C       184       14.868258    2.201719    5.443719   x
            x    C       185       10.829219   74.436586    5.409272   x
            x    C       186        6.796206   72.101739    5.432496   x
            x    C       187        9.486183   20.842734    5.486216   x
            x    C       188       17.559630    6.862690    5.474319   x
            x    C       189       51.189249   41.817032    5.460553   x
            x    C       190       57.906635   16.182700    5.455508   x
            x    C       191        2.757236   69.777548    5.409482   x
            x    C       192       45.813531   51.129837    5.472006   x
            x    C       193       61.951687   69.766792    5.407923   x
            x    C       194       49.839586   48.803595    5.460530   x
            x    C       195       51.188212   46.467036    5.462876   x
            x    C       196       57.906085   72.101700    5.407110   x
            x    C       197        5.453957   23.179912    5.486126   x
            x    C       198        2.757343   23.180056    5.488395   x
            x    C       199        5.453419   69.777771    5.420021   x
            x    C       200        1.408472   67.442338    5.414189   x
            x    C       201       21.595816   46.468789    5.543737   x
            x    C       202       35.044934   27.820000    5.437685   x
            x    C       203       37.743910   27.819967    5.435359   x
            x    C       204       53.880131   74.426176    5.423797   x
            x    C       205       13.526100   74.436497    5.427471   x
            x    C       206        9.480094   72.101475    5.424145   x
            x    C       207       59.255613   18.519318    5.467536   x
            x    C       208       51.183996    4.538056    5.438913   x
            x    C       209       63.295099   67.442786    5.437100   x
            x    C       210       29.669175   51.130203    5.538620   x
            x    C       211       17.552963    2.201600    5.454937   x
            x    C       212       18.901394    4.537670    5.465173   x
            x    C       213       59.255580   69.766518    5.417120   x
            x    C       214        2.757303   65.105984    5.426898   x
            x    C       215       55.223048   72.102148    5.451060   x
            x    C       216       14.875200   16.182162    5.482193   x
            x    C       217       25.629628   30.158313    5.479291   x
            x    C       218       13.526632   18.518570    5.481961   x
            x    C       219        1.414208   62.781763    5.461152   x
            x    C       220       17.552815   11.522325    5.487813   x
            x    C       221       61.952294   65.118102    5.432442   x
            x    C       222       18.901651    9.187406    5.487932   x
            x    C       223       49.847641   34.820841    5.472348   x
            x    C       224       63.300867   62.781902    5.443852   x
            x    C       225       22.945128   48.804855    5.558543   x
            x    C       226       18.898192   41.818846    5.530527   x
            x    C       227        6.802551   67.442356    5.442489   x
            x    C       228       49.834881    2.201940    5.455077   x
            x    C       229       51.184737    9.187349    5.474734   x
            x    C       230        5.454058   65.106178    5.444389   x
            x    C       231       51.189509   37.145833    5.460815   x
            x    C       232       51.184186   74.425728    5.450266   x
            x    C       233       49.842854    6.862726    5.496318   x
            x    C       234        2.757582   60.457153    5.462124   x
            x    C       235       53.881143   13.857437    5.488798   x
            x    C       236       26.971150   51.130346    5.550752   x
            x    C       237       29.670026   27.834071    5.484550   x
            x    C       238       57.912993   67.442686    5.464282   x
            x    C       239        1.408782   58.121561    5.482583   x
            x    C       240       21.598929    4.537819    5.503762   x
            x    C       241       55.224064   16.181376    5.520610   x
            x    C       242       10.829017   69.766546    5.459165   x
            x    C       243       10.829076   23.167073    5.506283   x
            x    C       244       61.952532   60.445886    5.468183   x
            x    C       245       59.256041   65.118359    5.446589   x
            x    C       246       61.952959   23.167702    5.522103   x
            x    C       247       39.084361   53.466080    5.588932   x
            x    C       248       41.767910   53.465723    5.543034   x
            x    C       249       63.295641   58.122016    5.506713   x
            x    C       250       21.596148   32.495982    5.485878   x
            x    C       251       14.875083   72.101355    5.469452   x
            x    C       252        5.454198   60.457418    5.481802   x
            x    C       253       18.897810   37.146273    5.515275   x
            x    C       254       18.901185   74.425496    5.492022   x
            x    C       255       18.898918   46.467865    5.573904   x
            x    C       256       47.157043   30.158140    5.502376   x
            x    C       257        6.796730   25.503167    5.554467   x
            x    C       258        1.414767   25.503046    5.564805   x
            x    C       259       43.118442   27.833248    5.493378   x
            x    C       260       53.884048   46.466527    5.492841   x
            x    C       261       51.187485   51.139907    5.488104   x
            x    C       262        9.486117   67.442749    5.492608   x
            x    C       263        6.796942   62.781874    5.500305   x
            x    C       264       53.880589   69.777834    5.465379   x
            x    C       265       17.557052   44.142963    5.582709   x
            x    C       266        2.758090   55.786456    5.512063   x
            x    C       267       53.884947   41.817411    5.499094   x
            x    C       268       17.549036   39.482692    5.533460   x
            x    C       269       33.702501   53.465641    5.613080   x
            x    C       270       26.972314   27.834324    5.504386   x
            x    C       271       47.151991    2.201995    5.518510   x
            x    C       272       22.945187   30.159587    5.493277   x
            x    C       273       47.162075   53.465563    5.504061   x
            x    C       274       22.947585    2.201504    5.525696   x
            x    C       275       57.913949   20.843086    5.546929   x
            x    C       276       55.229318   67.442930    5.469377   x
            x    C       277       21.598891    9.186743    5.526985   x
            x    C       278       22.940025    6.862415    5.559045   x
            x    C       279       17.558841   16.181090    5.548900   x
            x    C       280        9.480283   25.502429    5.532639   x
            x    C       281       14.868459   20.842438    5.551063   x
            x    C       282       59.256326   60.445629    5.482386   x
            x    C       283       61.953139   55.797961    5.506459   x
            x    C       284       13.525883   69.766211    5.486023   x
            x    C       285       18.901249   13.857086    5.526319   x
            x    C       286       57.907464   62.782005    5.473565   x
            x    C       287       49.842748   72.101724    5.508976   x
            x    C       288        5.454244   55.786434    5.528338   x
            x    C       289       17.558790   72.101776    5.526760   x
            x    C       290       63.301776   25.502746    5.554590   x
            x    C       291        6.803240   58.121789    5.519035   x
            x    C       292       47.159510    6.862549    5.519073   x
            x    C       293       21.598641   74.424877    5.523691   x
            x    C       294        1.415410   53.462739    5.551582   x
            x    C       295       13.525765   23.166335    5.531486   x
            x    C       296       31.018222   53.465780    5.583579   x
            x    C       297       53.883710   51.139391    5.501621   x
            x    C       298       55.225696   44.141748    5.538885   x
            x    C       299       45.810652    4.527095    5.523201   x
            x    C       300       49.835396   11.522146    5.520788   x
            x    C       301       49.845061   53.464070    5.531419   x
            x    C       302       63.302490   53.462683    5.521561   x
            x    C       303       55.232519   48.802712    5.504244   x
            x    C       304       59.256834   23.167368    5.543683   x
            x    C       305       51.185091   69.777771    5.493292   x
            x    C       306        9.480632   62.782132    5.515134   x
            x    C       307       59.257030   55.797882    5.512166   x
            x    C       308       51.185019   13.857572    5.527289   x
            x    C       309       45.814152   27.834238    5.514798   x
            x    C       310        5.453919   27.826626    5.570994   x
            x    C       311       10.828911   65.118130    5.510333   x
            x    C       312       57.914118   58.121738    5.530840   x
            x    C       313       51.188623   32.495952    5.508056   x
            x    C       314        2.757790   27.826574    5.576316   x
            x    C       315       25.631599    2.201724    5.587211   x
            x    C       316       45.810721   74.436695    5.521705   x
            x    C       317       17.549765   48.804440    5.595662   x
            x    C       318       17.556485   34.821265    5.557908   x
            x    C       319       18.898834   32.496659    5.526936   x
            x    C       320       21.596492   51.141855    5.603195   x
            x    C       321       53.885610   37.145347    5.510297   x
            x    C       322        6.796386   53.462619    5.577947   x
            x    C       323       33.703473   25.498380    5.545259   x
            x    C       324       14.873667   44.142441    5.565635   x
            x    C       325        2.757820   51.138303    5.551881   x
            x    C       326       57.907955   53.462733    5.517163   x
            x    C       327       39.086007   25.497693    5.535345   x
            x    C       328       55.224806   53.464000    5.541435   x
            x    C       329       53.881248   65.107016    5.498808   x
            x    C       330       49.840213   30.159915    5.521295   x
            x    C       331       61.953759   51.126637    5.532088   x
            x    C       332       53.882373   18.505899    5.548344   x
            x    C       333       55.224489   62.783063    5.522432   x
            x    C       334       25.624725    6.862286    5.578764   x
            x    C       335       47.159476   72.101927    5.520059   x
            x    C       336        9.486175   58.122667    5.574224   x
            x    C       337       59.257004   51.126518    5.522466   x
            x    C       338        5.454284   51.138423    5.561352   x
            x    C       339       55.234423   39.482006    5.525801   x
            x    C       340       57.915666   48.801798    5.549039   x
            x    C       341       26.972736    4.526626    5.583039   x
            x    C       342       31.018672   25.499247    5.537368   x
            x    C       343       17.552199   20.841460    5.566366   x
            x    C       344       14.865904   39.483025    5.578087   x
            x    C       345       55.230853   20.841957    5.559423   x
            x    C       346       10.829033   27.837755    5.559660   x
            x    C       347       43.114131    4.526647    5.557815   x
            x    C       348       53.882144   55.787801    5.531615   x
            x    C       349       18.900561   18.505118    5.563930   x
            x    C       350       43.116118   55.801224    5.570621   x
            x    C       351       55.230944   58.122875    5.524940   x
            x    C       352       45.812788   55.801080    5.545849   x
            x    C       353       13.524821   46.478980    5.570101   x
            x    C       354       41.769978   25.498707    5.530113   x
            x    C       355       14.866291   48.803282    5.611925   x
            x    C       356       14.867817   67.442755    5.554760   x
            x    C       357       14.874215   25.501951    5.559772   x
            x    C       358       10.828942   60.445941    5.551733   x
            x    C       359        9.479854   53.463392    5.571869   x
            x    C       360       22.948121   11.521785    5.562255   x
            x    C       361       45.811150    9.197691    5.561613   x
            x    C       362       18.898538   51.140920    5.613972   x
            x    C       363       25.621367   53.466250    5.596644   x
            x    C       364       13.524525   41.807100    5.562411   x
            x    C       365       21.597251   27.823219    5.543225   x
            x    C       366       51.186502   55.788204    5.535214   x
            x    C       367        1.408710   48.802077    5.564600   x
            x    C       368       21.598829   13.857343    5.560966   x
            x    C       369       37.741650   55.789187    5.626602   x
            x    C       370       63.295860   48.802156    5.579295   x
            x    C       371       22.939651   72.101288    5.586889   x
            x    C       372       57.908948   44.141410    5.554210   x
            x    C       373       13.525684   65.118570    5.540396   x
            x    C       374       43.114224   74.436792    5.554057   x
            x    C       375       41.773610    2.201639    5.590034   x
            x    C       376       18.900658   69.777731    5.552452   x
            x    C       377       26.972432   74.436596    5.584805   x
            x    C       378       53.882226   60.458589    5.524185   x
            x    C       379       59.257795   46.477121    5.552471   x
            x    C       380       61.953271   27.837906    5.589854   x
            x    C       381       10.828814   55.798683    5.577006   x
            x    C       382       13.525522   27.837361    5.562336   x
            x    C       383        6.803248   48.802320    5.571911   x
            x    C       384       49.835993   67.442816    5.526783   x
            x    C       385       47.153043   11.521201    5.589346   x
            x    C       386       17.550573   30.160016    5.550002   x
            x    C       387       10.828830   51.127766    5.578770   x
            x    C       388       35.044666   55.789132    5.636552   x
            x    C       389        9.486525   48.803287    5.594072   x
            x    C       390        6.802718   30.161914    5.586244   x
            x    C       391       29.670758    4.526182    5.600524   x
            x    C       392       13.525255   51.127892    5.593016   x
            x    C       393       25.623417   25.499156    5.556768   x
            x    C       394       14.872926   34.822205    5.557109   x
            x    C       395       10.828007   46.478747    5.564497   x
            x    C       396       18.899138   27.823757    5.558761   x
            x    C       397        1.408775   30.162037    5.600802   x
            x    C       398       17.557509   25.500463    5.598130   x
            x    C       399       57.907841   25.502535    5.577971   x
            x    C       400       51.184542   65.106606    5.527522   x
            x    C       401        9.486071   30.160985    5.598203   x
            x    C       402       22.937805   53.465362    5.644470   x
            x    C       403       13.524357   37.158546    5.561957   x
            x    C       404       61.954312   46.477063    5.570910   x
            x    C       405       18.900345   23.176986    5.586961   x
            x    C       406       53.884410   32.496660    5.553063   x
            x    C       407       31.011182    2.201552    5.627198   x
            x    C       408       14.867367   30.161130    5.586503   x
            x    C       409        5.454441   46.466000    5.582712   x
            x    C       410       55.226369   34.821387    5.578731   x
            x    C       411       41.765652    6.862436    5.585850   x
            x    C       412        2.757831   46.465609    5.585083   x
            x    C       413       25.624230   72.101594    5.588934   x
            x    C       414       22.939509   25.500644    5.592736   x
            x    C       415       29.670192   74.436795    5.598962   x
            x    C       416       49.844166   16.181284    5.595372   x
            x    C       417       39.089699    2.201512    5.592205   x
            x    C       418       17.552109   67.442820    5.562897   x
            x    C       419       45.810954   69.767025    5.555309   x
            x    C       420       26.973022    9.197363    5.604271   x
            x    C       421        9.478568   44.142189    5.570541   x
            x    C       422       49.837201   58.122871    5.552615   x
            x    C       423       21.597474   69.777706    5.575327   x
            x    C       424       13.524690   32.485285    5.563904   x
            x    C       425       10.828148   41.806555    5.571630   x
            x    C       426       14.874389   53.463900    5.611147   x
            x    C       427       63.296149   30.161470    5.632104   x
            x    C       428       33.695717    2.201625    5.612128   x
            x    C       429       57.916207   39.482480    5.599976   x
            x    C       430       59.256926   27.838307    5.592406   x
            x    C       431       13.525133   55.799240    5.601664   x
            x    C       432       51.186503   18.505214    5.575442   x
            x    C       433       13.525522   60.446051    5.580690   x
            x    C       434       59.258103   41.806464    5.584734   x
            x    C       435       51.185650   60.458915    5.546351   x
            x    C       436       37.741453    4.537572    5.605138   x
            x    C       437       17.557196   53.465248    5.653561   x
            x    C       438       43.114865    9.197775    5.592040   x
            x    C       439       51.188109   27.824791    5.567702   x
            x    C       440       29.669121   55.801913    5.615166   x
            x    C       441       41.765501   72.101645    5.577964   x
            x    C       442        5.454379   32.498233    5.598836   x
            x    C       443       53.882656   23.177652    5.587301   x
            x    C       444       35.043942    4.537566    5.614315   x
            x    C       445        6.795916   44.141601    5.613182   x
            x    C       446       10.828296   32.485280    5.571665   x
            x    C       447       47.154469   58.123964    5.592968   x
            x    C       448       25.631732   11.521140    5.623512   x
            x    C       449       37.741113   74.425696    5.604729   x
            x    C       450       31.019471    6.862207    5.614383   x
            x    C       451       21.598317   18.504488    5.589068   x
            x    C       452       47.162927   25.499651    5.555257   x
            x    C       453       47.153089   67.443684    5.582118   x
            x    C       454       63.303513   44.141554    5.597953   x
            x    C       455       14.874174   62.782279    5.574967   x
            x    C       456       21.597629   23.176762    5.593881   x
            x    C       457        1.416080   44.141704    5.628414   x
            x    C       458        2.757535   32.498596    5.608168   x
            x    C       459       55.225304   25.501041    5.612782   x
            x    C       460       49.843003   62.782390    5.579678   x
            x    C       461       35.043891   74.425882    5.614299   x
            x    C       462       10.828024   37.158974    5.574804   x
            x    C       463       39.082227    6.862098    5.632240   x
            x    C       464        9.486360   39.482978    5.609303   x
            x    C       465       22.940129   16.180758    5.617101   x
            x    C       466       26.970379   55.802712    5.615235   x
            x    C       467       55.232572   30.160759    5.584008   x
            x    C       468        9.479243   34.822399    5.579254   x
            x    C       469       53.883894   27.824939    5.585615   x
            x    C       470       41.774146   58.123547    5.637961   x
            x    C       471       14.867349   58.122522    5.632232   x
            x    C       472       35.046121   23.174636    5.580811   x
            x    C       473       33.703760    6.862190    5.647040   x
            x    C       474       61.954094   41.806160    5.608893   x
            x    C       475       37.743197   23.174873    5.568419   x
            x    C       476        5.453703   41.817212    5.612851   x
            x    C       477       49.845332   25.501559    5.598968   x
            x    C       478       43.114402   69.766623    5.580343   x
            x    C       479       57.915292   30.161903    5.625490   x
            x    C       480       29.670732    9.197751    5.620816   x
            x    C       481       57.909618   34.822264    5.599286   x
            x    C       482       39.082154   72.101651    5.625716   x
            x    C       483        6.796528   34.822587    5.622071   x
            x    C       484       31.018777   72.101540    5.610106   x
            x    C       485       39.090354   58.124150    5.636019   x
            x    C       486        2.758009   41.817433    5.621064   x
            x    C       487       29.670423   23.163265    5.583882   x
            x    C       488       59.258067   37.158117    5.607904   x
            x    C       489       26.971999   23.162979    5.584368   x
            x    C       490       61.954233   32.485865    5.623710   x
            x    C       491        6.802936   39.482571    5.609156   x
            x    C       492       45.812068   13.845348    5.606096   x
            x    C       493       22.946693   20.840703    5.600971   x
            x    C       494       18.899550   55.788761    5.645504   x
            x    C       495        1.415397   34.822577    5.647221   x
            x    C       496       33.703007   72.101746    5.642265   x
            x    C       497       59.257842   32.485936    5.614562   x
            x    C       498        5.454374   37.147111    5.613779   x
            x    C       499       51.186703   23.177398    5.590130   x
            x    C       500       21.596240   55.789177    5.648043   x
            x    C       501        1.408441   39.482449    5.627993   x
            x    C       502       63.295744   39.482334    5.650142   x
            x    C       503       43.117564   23.163232    5.567986   x
            x    C       504       26.972358   69.766944    5.611361   x
            x    C       505       18.900027   65.106991    5.591748   x
            x    C       506        2.757689   37.146965    5.624180   x
            x    C       507       49.838117   20.841559    5.590521   x
            x    C       508       63.302918   34.822283    5.630688   x
            x    C       509       45.811670   60.447389    5.598835   x
            x    C       510       47.160907   16.180154    5.603412   x
            x    C       511       47.159670   62.783094    5.586704   x
            x    C       512       61.954050   37.158320    5.629025   x
            x    C       513       17.557580   62.783170    5.622000   x
            x    C       514       17.550696   58.123451    5.630956   x
            x    C       515       45.811661   65.119210    5.588851   x
            x    C       516       45.814458   23.163173    5.571485   x
            x    C       517       33.695584   58.124304    5.654409   x
            x    C       518       22.946255   67.442851    5.602308   x
            x    C       519       37.741628    9.186378    5.631905   x
            x    C       520       41.774438   11.521471    5.645183   x
            x    C       521       29.670188   69.766335    5.618001   x
            x    C       522       35.044551    9.186443    5.638596   x
            x    C       523       43.115637   60.447289    5.618574   x
            x    C       524       37.740824   69.777667    5.621715   x
            x    C       525       25.630556   20.839232    5.632389   x
            x    C       526       31.011354   58.124570    5.672172   x
            x    C       527       26.972956   13.844967    5.623517   x
            x    C       528       41.773196   67.443041    5.628796   x
            x    C       529       25.624844   16.180116    5.620577   x
            x    C       530       18.899366   60.459302    5.623373   x
            x    C       531       35.043896   69.777908    5.629798   x
            x    C       532       21.597972   65.106495    5.608244   x
            x    C       533       25.630453   67.443649    5.642780   x
            x    C       534       47.155414   20.839810    5.617870   x
            x    C       535       43.115962   13.845035    5.626101   x
            x    C       536       22.945226   58.123957    5.649167   x
            x    C       537       43.114786   65.119153    5.608432   x
            x    C       538       25.629104   58.125462    5.670017   x
            x    C       539       31.011933   11.521188    5.661144   x
            x    C       540       39.090829   11.521107    5.636258   x
            x    C       541       37.741868   60.459939    5.642447   x
            x    C       542       45.813009   18.515823    5.610572   x
            x    C       543       39.089283   67.442889    5.621714   x
            x    C       544       41.767159   62.783060    5.625354   x
            x    C       545       31.012911   20.840207    5.641663   x
            x    C       546       21.597191   60.459587    5.636985   x
            x    C       547       33.696229   11.521143    5.647524   x
            x    C       548       41.775491   20.840132    5.617814   x
            x    C       549       33.697588   20.839795    5.619400   x
            x    C       550       39.091932   20.839203    5.595008   x
            x    C       551       26.972807   18.515687    5.625955   x
            x    C       552       35.043616   60.460282    5.650100   x
            x    C       553       29.670668   13.844741    5.636110   x
            x    C       554       31.011546   67.442967    5.656619   x
            x    C       555       33.695958   67.442914    5.637283   x
            x    C       556       22.939452   62.782992    5.657273   x
            x    C       557       39.083330   62.783609    5.658680   x
            x    C       558       29.669292   60.447757    5.658012   x
            x    C       559       26.971508   65.119456    5.640046   x
            x    C       560       37.741652   65.107003    5.633993   x
            x    C       561       26.971627   60.448368    5.658273   x
            x    C       562       43.116496   18.515672    5.615322   x
            x    C       563       41.767709   16.180074    5.629175   x
            x    C       564       25.624067   62.783808    5.650103   x
            x    C       565       29.671146   18.516096    5.631738   x
            x    C       566       29.669733   65.119338    5.642348   x
            x    C       567       35.043669   65.107445    5.641068   x
            x    C       568       37.742310   13.855712    5.643811   x
            x    C       569       33.702147   62.783891    5.671709   x
            x    C       570       35.044902   13.855506    5.648850   x
            x    C       571       31.017573   62.783553    5.651743   x
            x    C       572       31.019454   16.179947    5.638835   x
            x    C       573       37.743197   18.502814    5.616879   x
            x    C       574       35.044819   18.503042    5.628208   x
            x    C       575       39.083971   16.179233    5.655103   x
            x    C       576       33.703925   16.179458    5.665630   x
            x    C       577       33.708854   39.490168   12.271952   x
            x    C       578       33.716367   34.808889   12.189165   x
            x    C       579       35.062316   37.137991   12.282402   x
            x    C       580       29.673682   37.153674   12.340566   x
            x    C       581       35.064445   41.831749   12.312026   x
            x    C       582       37.780134   37.147224   12.314638   x
            x    C       583       35.057306   32.483264   12.276034   x
            x    C       584       29.668572   32.466219   12.330891   x
            x    C       585       37.773944   32.489761   12.319298   x
            x    C       586       31.019270   39.485300   12.290583   x
            x    C       587       39.121181   34.808958   12.295267   x
            x    C       588       39.132589   39.479141   12.345855   x
            x    C       589       31.024055   34.808188   12.315117   x
            x    C       590       29.673152   41.810772   12.401023   x
            x    C       591       33.709086   30.141646   12.376599   x
            x    C       592       37.777116   41.834143   12.403286   x
            x    C       593       39.127506   30.134695   12.438418   x
            x    C       594       35.063221   27.802924   12.527286   x
            x    C       595       31.020321   30.141043   12.458633   x
            x    C       596       31.030172   44.165350   12.367523   x
            x    C       597       41.819457   34.814214   12.400234   x
            x    C       598       25.614020   39.481868   12.449281   x
            x    C       599       41.828784   39.481315   12.315460   x
            x    C       600       39.126005   44.161218   12.388347   x
            x    C       601       26.957349   41.815026   12.451792   x
            x    C       602       25.610627   34.805081   12.399296   x
            x    C       603       37.773274   27.800899   12.473956   x
            x    C       604       41.825370   30.136031   12.456423   x
            x    C       605       41.816564   44.161052   12.493778   x
            x    C       606       26.960613   37.156659   12.393028   x
            x    C       607       26.966884   32.469823   12.480545   x
            x    C       608       33.719739   44.164805   12.339438   x
            x    C       609       25.605415   44.162069   12.493231   x
            x    C       610       43.175138   37.156096   12.372272   x
            x    C       611       25.620306   30.137917   12.582010   x
            x    C       612       43.173224   32.463924   12.448942   x
            x    C       613       43.168027   41.812574   12.413809   x
            x    C       614       29.672027   46.513922   12.396606   x
            x    C       615       22.908974   39.478882   12.522287   x
            x    C       616       21.559800   41.831005   12.532619   x
            x    C       617       26.965270   27.812397   12.530945   x
            x    C       618       45.870275   41.808415   12.402113   x
            x    C       619       21.561562   37.133120   12.521907   x
            x    C       620       22.899450   44.155341   12.508571   x
            x    C       621       21.571611   32.467024   12.499421   x
            x    C       622       39.134358   48.835883   12.493493   x
            x    C       623       22.911679   34.802201   12.467820   x
            x    C       624       26.959698   46.511369   12.482963   x
            x    C       625       35.062092   46.491694   12.424782   x
            x    C       626       47.211446   39.471948   12.423303   x
            x    C       627       37.778564   46.486606   12.561241   x
            x    C       628       29.669297   27.807461   12.555279   x
            x    C       629       18.847631   37.132061   12.554724   x
            x    C       630       18.842159   41.826123   12.590719   x
            x    C       631       43.169111   46.511356   12.518282   x
            x    C       632       45.873607   37.148439   12.430410   x
            x    C       633       41.828771   48.834559   12.529403   x
            x    C       634       22.930296   30.136624   12.584353   x
            x    C       635       47.214818   44.157500   12.503809   x
            x    C       636       31.026483   48.845839   12.350699   x
            x    C       637       47.210379   34.811664   12.482698   x
            x    C       638       33.716639   25.467017   12.488116   x
            x    C       639       39.119352   25.470297   12.571691   x
            x    C       640        1.412241   11.519054   12.493022   x
            x    C       641        2.760379    9.186091   12.492471   x
            x    C       642        1.418991    6.864380   12.474950   x
            x    C       643       61.959950    9.197492   12.494395   x
            x    C       644       63.307539    6.864482   12.495771   x
            x    C       645       63.301481   11.519043   12.474570   x
            x    C       646       45.864779   32.468050   12.492629   x
            x    C       647        5.455127    9.185577   12.492907   x
            x    C       648       18.855732   32.465932   12.480903   x
            x    C       649        2.759627   13.851543   12.497431   x
            x    C       650       61.960451    4.530805   12.503859   x
            x    C       651        2.761346    4.542512   12.501747   x
            x    C       652       45.860434   46.507004   12.519078   x
            x    C       653        6.797868    6.863867   12.477926   x
            x    C       654        5.456141    4.542514   12.502508   x
            x    C       655       35.065788   23.139884   12.579475   x
            x    C       656        6.802548   11.517539   12.493991   x
            x    C       657       59.266125    9.197418   12.504641   x
            x    C       658        5.453612   13.850447   12.498587   x
            x    C       659       59.265899    4.530746   12.509597   x
            x    C       660       33.712130   48.838483   12.457891   x
            x    C       661        1.413568    2.208809   12.505432   x
            x    C       662       57.918387    6.864384   12.511360   x
            x    C       663       63.302220    2.208634   12.486448   x
            x    C       664       61.960378   13.840707   12.509180   x
            x    C       665        9.479879    6.863514   12.504054   x
            x    C       666        1.418016   16.174020   12.488776   x
            x    C       667        6.803716    2.209280   12.507380   x
            x    C       668       57.924059    2.208779   12.495242   x
            x    C       669       61.960375   74.446306   12.512967   x
            x    C       670       49.882009   39.480271   12.507437   x
            x    C       671       35.065134   51.167125   12.530956   x
            x    C       672        2.761142   74.435199   12.506342   x
            x    C       673        9.485817    2.209618   12.494986   x
            x    C       674       10.828566    4.530453   12.513582   x
            x    C       675        9.484693   11.516317   12.480136   x
            x    C       676        5.455479   74.436101   12.508180   x
            x    C       677       59.265789   74.446562   12.518328   x
            x    C       678       63.307317   16.174383   12.516735   x
            x    C       679       10.828132    9.195094   12.502671   x
            x    C       680       17.493541   39.480267   12.541713   x
            x    C       681       57.924505   11.519241   12.499057   x
            x    C       682       49.889796   44.155072   12.503127   x
            x    C       683       55.242494    2.208827   12.522719   x
            x    C       684       55.236494    6.863547   12.504698   x
            x    C       685        1.418812   72.113602   12.489696   x
            x    C       686       17.500740   44.158893   12.530192   x
            x    C       687       63.307710   72.113459   12.512358   x
            x    C       688        6.794087   16.172154   12.493244   x
            x    C       689       53.894370    4.542041   12.528923   x
            x    C       690       43.165273   27.812108   12.554217   x
            x    C       691       59.266507   13.840862   12.523171   x
            x    C       692       13.524060    4.530726   12.520839   x
            x    C       693       31.025135   25.460770   12.502878   x
            x    C       694       57.918463   72.113522   12.525424   x
            x    C       695       25.616763   25.463527   12.649327   x
            x    C       696       37.771094   51.167391   12.598400   x
            x    C       697       10.828044   74.448048   12.529432   x
            x    C       698        2.757953   18.496349   12.525170   x
            x    C       699       17.507757   34.799335   12.538214   x
            x    C       700        6.796996   72.114584   12.496761   x
            x    C       701       53.894774   74.435502   12.530201   x
            x    C       702       61.960277   69.780671   12.518625   x
            x    C       703        5.452312   18.495260   12.526632   x
            x    C       704        2.760072   69.791895   12.518910   x
            x    C       705       59.266721   69.780730   12.526823   x
            x    C       706       10.825552   13.836615   12.517220   x
            x    C       707       55.236893   72.114156   12.512896   x
            x    C       708       14.867404    2.209424   12.511952   x
            x    C       709       13.523239    9.194952   12.514146   x
            x    C       710        9.479011   72.115212   12.529968   x
            x    C       711       13.523910   74.448180   12.537353   x
            x    C       712       51.227568   41.823284   12.521473   x
            x    C       713        5.454411   69.792665   12.521840   x
            x    C       714        9.475649   16.170745   12.525599   x
            x    C       715       53.895270    9.184825   12.545876   x
            x    C       716       63.301215   67.458138   12.505900   x
            x    C       717       14.872755    6.862393   12.521967   x
            x    C       718        1.411874   67.458243   12.528668   x
            x    C       719       51.199661    4.541917   12.545716   x
            x    C       720       55.243663   11.518325   12.544878   x
            x    C       721       51.200461   74.435572   12.545126   x
            x    C       722       61.960071   18.508855   12.540162   x
            x    C       723       61.960853   65.135132   12.540324   x
            x    C       724       49.851704    2.208885   12.552911   x
            x    C       725       57.925780   67.458241   12.524373   x
            x    C       726       17.549968    2.209124   12.547966   x
            x    C       727       21.560950   46.492497   12.595317   x
            x    C       728       47.200703   48.828146   12.517648   x
            x    C       729       53.896132   69.792711   12.556952   x
            x    C       730        2.758741   65.123975   12.540765   x
            x    C       731        1.410255   20.832436   12.542644   x
            x    C       732       29.668456   23.121107   12.577204   x
            x    C       733       63.307110   62.799807   12.545893   x
            x    C       734       59.266822   65.135017   12.551267   x
            x    C       735        1.417558   62.800014   12.526309   x
            x    C       736       57.919310   16.174457   12.550626   x
            x    C       737        6.801597   67.459675   12.538058   x
            x    C       738       41.808008   25.474228   12.609290   x
            x    C       739       13.520847   13.836263   12.531549   x
            x    C       740       14.872662   72.116140   12.551969   x
            x    C       741       10.827246   69.783090   12.544236   x
            x    C       742       55.244930   67.458894   12.565328   x
            x    C       743       49.883465   34.812969   12.520683   x
[...]
 Li 1174 -- Li 1189        0.11      0.00      5.58243
 Li 1130 -- Li 1148        0.11      0.00      5.58440
 Li 1105 -- Li 1109        0.12      0.00      5.58445
 Li 1164 -- Li 1165        0.11     -0.00      5.58811
 C   601 -- Li 1133       -0.04     -0.00      5.59331
 Li 1152 -- Li 1184        0.10      0.00      5.59366
 Li 1171 -- Li 1187        0.14     -0.00      5.60196
 C   671 -- Li 1203       -0.03     -0.00      5.60597
 Li 1106 -- Li 1120        0.11     -0.00      5.60800
 Li 1195 -- Li 1196        0.15      0.00      5.60944
 Li 1173 -- Li 1174        0.09      0.00      5.60981
 Li 1169 -- Li 1182        0.09      0.00      5.61099
 Li 1135 -- Li 1166        0.10      0.00      5.61107
 Li 1187 -- Li 1206        0.13      0.00      5.61487
 Li 1189 -- Li 1203        0.15     -0.00      5.61492
 Li 1139 -- Li 1155        0.10      0.00      5.61544
 C   869 -- Li 1095       -0.02      0.00      5.61950
 Li 1132 -- Li 1136        0.12      0.00      5.61965
 Li 1142 -- Li 1157        0.12      0.00      5.62333
 C   652 -- Li 1213       -0.04      0.00      5.62552
 C   626 -- Li 1213       -0.03      0.00      5.63341
 C   693 -- Li 1160       -0.03      0.00      5.63416
 Li 1179 -- Li 1191        0.11      0.00      5.63429
 Li 1109 -- Li 1113        0.14     -0.00      5.63775
 Li 1140 -- Li 1153        0.10      0.00      5.63777
 Li 1095 -- Li 1106        0.12      0.00      5.63844
 Li 1149 -- Li 1165        0.09      0.00      5.63909
 Li 1099 -- Li 1130        0.13      0.00      5.63930
 Li 1132 -- Li 1194        0.12     -0.00      5.64214
 Li 1200 -- Li 1213        0.16     -0.00      5.64431
 Li 1106 -- Li 1111        0.12      0.00      5.64581
 Li 1186 -- Li 1189        0.13     -0.00      5.64729
 Li 1118 -- Li 1119        0.11     -0.00      5.64786
 Li 1092 -- Li 1103        0.12      0.00      5.65231
 Li 1172 -- Li 1203        0.09      0.00      5.65240
 Li 1157 -- Li 1174        0.13      0.00      5.65462
 C   589 -- Li 1164       -0.03     -0.00      5.65497
 Li 1166 -- Li 1197        0.10      0.00      5.65583
 Li 1098 -- Li 1129        0.08      0.00      5.66420
 Li 1102 -- Li 1133        0.06     -0.00      5.66505
 Li 1185 -- Li 1186        0.13     -0.00      5.66522
 Li 1100 -- Li 1119        0.13      0.00      5.66593
 C   577 -- Li 1133       -0.02     -0.00      5.66718
=============================================================


============== Orbital energy and occupancy information for spin 1 =============

      Total number of orbitals:    5051
        Occupancy sum (kernel):    2319.415486384
   Occupancy sum (eigenvalues):    2319.415486384
                 HOMO-LUMO gap:       0.000377423 Eh
                 Mid-gap level:      -0.160969671 Eh

                        Orbital | Energy (Eh) | Occupancy
                            1    -1.934232462   1.0000000
                        .......   ...........   .........
                         2311    -0.166427165   0.7453432
                         2312    -0.166128721   0.7299742
                         2313    -0.166086304   0.7270264
                         2314    -0.164843446   0.6557869
                         2315    -0.164247585   0.6187561
                         2316    -0.163357722   0.5596512
                         2317    -0.162850601   0.5253781
                         2318    -0.161891514   0.4600131
                         2319    -0.161425316   0.4288809
                         2320    -0.161158382   0.4113702
                        ....... -- gap at 0K -- .........
                         2321    -0.160780959   0.3873565
                         2322    -0.160544040   0.3727979
                         2323    -0.160075156   0.3438151
                         2324    -0.159707734   0.3210888
                         2325    -0.159282448   0.2962760
                         2326    -0.159126750   0.2875746
                         2327    -0.158657921   0.2623944
                         2328    -0.158227512   0.2404294
                         2329    -0.157648215   0.2126688
                         2330    -0.157089534   0.1886275
                        .......   ...........   .........
                         5051     0.721198988   0.0000000

================================================================================

============== Orbital energy and occupancy information for spin 2 =============

      Total number of orbitals:    5051
        Occupancy sum (kernel):    2319.415486384
   Occupancy sum (eigenvalues):    2319.415486384
                 HOMO-LUMO gap:       0.000266934 Eh
                 Mid-gap level:      -0.161291849 Eh

                        Orbital | Energy (Eh) | Occupancy
                            1    -1.934232462   1.0000000
                        .......   ...........   .........
                         2310    -0.167081987   0.7781834
                         2311    -0.166427165   0.7453432
                         2312    -0.166128721   0.7299742
                         2313    -0.166086304   0.7270264
                         2314    -0.164843446   0.6557869
                         2315    -0.164247585   0.6187561
                         2316    -0.163357722   0.5596512
                         2317    -0.162850601   0.5253781
                         2318    -0.161891514   0.4600131
                         2319    -0.161425316   0.4288809
                        ....... -- gap at 0K -- .........
                         2320    -0.161158382   0.4113702
                         2321    -0.160780959   0.3873565
                         2322    -0.160544040   0.3727979
                         2323    -0.160075156   0.3438151
                         2324    -0.159707734   0.3210888
                         2325    -0.159282448   0.2962760
                         2326    -0.159126750   0.2875746
                         2327    -0.158657921   0.2623944
                         2328    -0.158227512   0.2404294
                         2329    -0.157648215   0.2126688
                        .......   ...........   .........
                         5051     0.721198988   0.0000000

================================================================================

===================== Writing canonical molecular orbitals =====================
    Spin 1
| Orbital  Energy (eV)  Norm     |
| HOMO-5   -4.46940421  1.000000 | Writing "graphite_HOMO-5_UP.dx" ... done
| HOMO-4   -4.44518981  1.000000 | Writing "graphite_HOMO-4_UP.dx" ... done
| HOMO-3   -4.43139033  1.000000 | Writing "graphite_HOMO-3_UP.dx" ... done
| HOMO-2   -4.40529226  1.000000 | Writing "graphite_HOMO-2_UP.dx" ... done
| HOMO-1   -4.39260636  1.000000 | Writing "graphite_HOMO-1_UP.dx" ... done
| HOMO     -4.38534272  1.000000 | Writing "graphite_HOMO_UP.dx" ... done
| LUMO     -4.37507251  1.000000 | Writing "graphite_LUMO_UP.dx" ... done
| LUMO+1   -4.36862563  1.000000 | Writing "graphite_LUMO+1_UP.dx" ... done
| LUMO+2   -4.35586663  1.000000 | Writing "graphite_LUMO+2_UP.dx" ... done
| LUMO+3   -4.34586858  1.000000 | Writing "graphite_LUMO+3_UP.dx" ... done
| LUMO+4   -4.33429594  1.000000 | Writing "graphite_LUMO+4_UP.dx" ... done
| LUMO+5   -4.33005920  1.000000 | Writing "graphite_LUMO+5_UP.dx" ... done
================================================================================

===================== Writing canonical molecular orbitals =====================
    Spin 2
| Orbital  Energy (eV)  Norm     |
| HOMO-5   -4.48561840  1.000000 | Writing "graphite_HOMO-5_DN.dx" ... done
| HOMO-4   -4.46940421  1.000000 | Writing "graphite_HOMO-4_DN.dx" ... done
| HOMO-3   -4.44518981  1.000000 | Writing "graphite_HOMO-3_DN.dx" ... done
| HOMO-2   -4.43139033  1.000000 | Writing "graphite_HOMO-2_DN.dx" ... done
| HOMO-1   -4.40529226  1.000000 | Writing "graphite_HOMO-1_DN.dx" ... done
| HOMO     -4.39260636  1.000000 | Writing "graphite_HOMO_DN.dx" ... done
| LUMO     -4.38534272  1.000000 | Writing "graphite_LUMO_DN.dx" ... done
| LUMO+1   -4.37507251  1.000000 | Writing "graphite_LUMO+1_DN.dx" ... done
| LUMO+2   -4.36862563  1.000000 | Writing "graphite_LUMO+2_DN.dx" ... done
| LUMO+3   -4.35586663  1.000000 | Writing "graphite_LUMO+3_DN.dx" ... done
| LUMO+4   -4.34586858  1.000000 | Writing "graphite_LUMO+4_DN.dx" ... done
| LUMO+5   -4.33429594  1.000000 | Writing "graphite_LUMO+5_DN.dx" ... done
================================================================================
 
=============== Density of States (DOS) calculation for UP spin ================
Writing "graphite_UP_DOS.txt" ...  done
================================================================================
 
============== Density of States (DOS) calculation for DOWN spin ===============
Writing "graphite_DN_DOS.txt" ...  done
================================================================================
 
Writing bands to file "graphite.val_bands" ... done

IS: Calculating electrolyte contribution to the atomic forces ...
================================================================================
 
***********************************************************
********** Summary of Forces (values in Eh/a) *************
*                                                         *
* ---------------------- Minimum ------------------------ *
* Atom:       117, |F|min =    0.00000869                 *
* Components:     Fx|min       Fy|min       Fz|min        *
*              -0.00000316  -0.00000216  -0.00000780      *
*                                                         *
* ---------------------- Maximum ------------------------ *
* Atom:      1089, |F|max =    0.00194603                 *
* Components:     Fx|max       Fy|max       Fz|max        *
*               0.00147180  -0.00122791  -0.00033626      *
*                                                         *
* ---------------- Root Mean Square Force --------------- *
*                  |F|rms =    0.00024354                 *
* Components:     Fx|rms       Fy|rms       Fz|rms        *
*               0.00015786   0.00013103   0.00013124      *
***********************************************************
 

                                                      hartree           kcal/mol
IS: NB: Energy of pure electrolyte:         -0.17004551780171        -106.705171

------------------------------ TIMING INFORMATION ------------------------------
AVERAGE TIME:   35949.279s on    128 proc(s)                                    
TOTAL TIME:     35949.444s on    128 proc(s)                                    
==================== AVERAGE TIMINGS FROM ALL PROCS (CUMULATIVE) =====================
|| TAG                                         #calls     cpu time   %total  Gflops ||
|| hash_table_free                            :    12        0.00s   0.000%  ------ ||
|| linalg_invert_sym_matrix                   :     8        0.00s   0.000%  ------ || (1 procs only)
|| linalg_dgemv                               :    39        0.00s   0.000%  ------ || (3 procs only)
|| density_fftbox_interp_mult_imbal           : 36982        0.00s   0.000%  ------ ||
|| sparse_set_to_garbage                      :    80        0.01s   0.000%  ------ ||
|| onetep.F90 final imbalance                 :     1        0.01s   0.000%  ------ ||
|| onetep.F90 main loop imbalance             :     1        0.01s   0.000%  ------ ||
|| ewald_calculate_forces_realspace           :     4        0.01s   0.000%  ------ ||
|| vdwcorrection_calculate_energy             :     4        0.02s   0.000%  ------ ||
|| basis_extract_function_from_box            :  1420        0.03s   0.000%  ------ ||
|| pseudopotentials_local_on_grid             :     4        0.10s   0.000%  ------ ||
|| parallel_prepare_fd_halos_alloc            : 45114        0.12s   0.000%  ------ ||
|| parallel_prepare_fd_halos_request          : 45114        0.20s   0.001%  ------ ||
|| vdwcorrection_calculate_forces             :     4        0.22s   0.001%  ------ ||
|| pseudopotentials_core_density              :     4        0.30s   0.001%  ------ ||
|| smeared_ion_generate_potential_PBC         :     4        0.35s   0.001%  ------ ||
|| restart_hamiltonian_write                  :     8        0.37s   0.001%  ------ ||
|| pseudo_make_structure_factor               :     4        0.75s   0.002%  ------ ||
|| sparse_spam3toblacs_real_fast_B2           : 223.0k       1.18s   0.003%  ------ ||
|| sparse_blacstospam3_real_fast_imbal        :  1728        1.27s   0.004%  ------ ||
|| restart_hamiltonian_read                   :     4        1.33s   0.004%  ------ ||
|| energy_and_force_init_cell                 :     1        1.47s   0.004%  ------ ||
|| parallel_prepare_fd_halos_satisfy          : 45114        2.26s   0.006%  ------ ||
|| projectors_init_fftbox_recip               :    72        2.66s   0.007%  ------ ||
|| restart_kernel_write                       :    12        2.79s   0.008%  ------ ||
|| pseudopotentials_nonlocal_mat              :    12        3.32s   0.009%  ------ ||
|| integrals_grad_spam3                       :     4        3.53s   0.010%  ------ ||
|| pseudo_local_calculate_forces              :     4        3.76s   0.010%  ------ ||
|| nonsc_forces_ngwfs_calc                    :     4        3.80s   0.011%  ------ ||
|| projectors_func_ovlp_box_spam3             :    12        4.01s   0.011%  ------ ||
|| ewald_calculate_energy                     :     4        4.16s   0.012%  ------ ||
|| projectors_func_grad_ovlp_box_spam3        :    12        4.38s   0.012%  ------ ||
|| pseudo_nlcc_calculate_forces               :     4        4.74s   0.013%  ------ ||
|| density_init_guess_real                    :     4        5.47s   0.015%  ------ ||
|| restart_ngwfs_tightbox_input               :     4        5.81s   0.016%  ------ ||
|| sparse_spam3toblacs_real_fast_imbal        :  1742        6.15s   0.017%  ------ ||
|| myself                                     :  1582        6.41s   0.018%  5.213k ||
|| ewald_calculate_forces_recipspace          :     4        8.82s   0.025%  ------ ||
|| ewald_calculate_forces                     :     4        8.98s   0.025%  ------ ||
|| function_ops_brappd_ketppd_spam3           :    20       19.37s   0.054%  ------ ||
|| basis_copy_function_to_box                 : 49405       20.69s   0.058%  ------ ||
|| pseudo_nl_calculate_forces                 :     4       21.53s   0.060%  ------ ||
|| integrals_kinetic_spam3                    :    12       23.03s   0.064%  ------ ||
|| projectors_gradient_batch                  :    48       23.09s   0.064%  ------ ||
|| sparse_init                                :     4       24.33s   0.068%  ------ ||
|| basis_dot_function_with_box                : 8.305M      27.67s   0.077%  ------ ||
|| ngwf_gradient_coeffs                       :     8       35.16s   0.098%  ------ ||
|| restart_ngwfs_tightbox_output              :     6       39.80s   0.111%  ------ ||
|| parallel_prepare_fd_halos_clear            : 45114       42.83s   0.119%  ------ ||
|| parallel_prepare_fd_halos_comms_wait       : 45114       50.67s   0.141%  ------ ||
|| fourier_filter_cell                        :   320       62.14s   0.173%  53.995 ||
|| sparse_embed_array_hotelling_invert        :    12       72.80s   0.203%  ------ ||
|| basis_add_function_to_box                  : 25.74M      73.14s   0.203%  ------ ||
|| fourier_apply_cell_backward                :  3660       81.45s   0.227% 238.663 ||
|| fourier_filter                             :  6706      108.08s   0.301%  ------ ||
|| parallel_prepare_fd_halos_comms_imbalance  : 45114      129.93s   0.361%  ------ ||
|| sparse_spam3toblacs_real_fast_B1           : 223.0k     136.32s   0.379%  ------ ||
|| sparse_spam3toblacs_real_fast              :  1742      146.29s   0.407%  ------ ||
|| fourier_apply_cell_forward                 :  3644      188.80s   0.525% 102.513 ||
|| xc_energy_potential                        :   453      190.11s   0.529%  ------ ||
|| fourier_interpolate_cell                   :   902      208.51s   0.580%  45.356 ||
|| implicit_solvent_boltzmann_forces          :     4      209.11s   0.582%  ------ ||
|| fourier_interpolate                        :  6706      212.72s   0.592%  ------ ||
|| parallel_prepare_fd_halos                  : 45114      226.14s   0.629%  ------ ||
|| eigenstates_calculate                      :     1      247.45s   0.688%  ------ ||
|| cell_grid_extract_box_real                 : 13478      253.73s   0.706%  ------ ||
|| ngwf_gradient_build_batch                  :    48      276.00s   0.768%  ------ ||
|| ngwf_gradient_batch                        :    48      325.51s   0.905%  ------ ||
|| smeared_ion_force_correction               :     8      338.39s   0.941%  ------ ||
|| ngwf_gradient_lnv                          :     8      375.34s   1.044%  ------ ||
|| multigrid_polarization_data                :     2      376.07s   1.046%  ------ ||
|| hamiltonian_energy_components              :     4      416.25s   1.158%  ------ ||
|| finite_difference_derivative               : 45114      418.90s   1.165%  ------ ||
|| sparse_blacstospam3_real_fast              :  1728      448.79s   1.248%  ------ ||
|| implicit_solvent_soft_sphere_forces        :     4      610.24s   1.698%  ------ ||
|| boltzmann_init_steric_pot                  :     4      665.18s   1.850%  ------ ||
|| integrals_locpot_mat_els_batch             :   912      711.18s   1.978%  ------ ||
|| cell_grid_deposit_box_real                 : 38046      929.58s   2.586%  ------ ||
|| sparse_product                             :  3150      976.73s   2.717%  ------ ||
|| sparse_trace                               :  6422     1046.44s   2.911%  ------ ||
|| fourier_apply_box                          : 100.9k    1068.38s   2.972%  9.907k ||
|| forces_calculate                           :     4     1336.52s   3.718%  ------ ||
|| fourier_interpolate_product                : 35593     1409.80s   3.922%  ------ ||
|| density_batch_row_sums                     :  2706     1438.25s   4.001%  ------ ||
|| density_fftbox_interpolate_multiply        : 36982     1561.07s   4.342%  ------ ||
|| dense_eigensolve                           :   858     1887.36s   5.250%  ------ ||
|| edft_diag_ngwf_ham                         :   856     2035.37s   5.662%  ------ ||
|| properties_calculate                       :     1     2309.63s   6.425%  ------ ||
|| potential_apply_to_ngwf_batch              :   912     3403.85s   9.468%  ------ ||
|| edft_apply_smearing_operator               :   428     3578.38s   9.954%  ------ ||
|| integrals_locpot_dbl_grid                  :   304     4132.90s  11.496%  ------ ||
|| density_fftbox_deposit_to_cell             : 36982     5450.47s  15.162%  ------ ||
|| dl_mg_solver_calls                         :   452     5829.94s  16.217%  ------ ||
|| multigrid_calculate_hartree                :   452     6156.45s  17.125%  ------ ||
|| density_batch_interp_deposit               :  2706    12955.77s  36.039%  ------ ||
|| density_on_dbl_grid                        :   902    14886.98s  41.411%  ------ ||
|| hamiltonian_lhxc_calculate                 :   441    22773.65s  63.349%  ------ ||
|| edft_calculate                             :     8    29635.82s  82.438%  ------ ||
|| ngwf_cg_optimise                           :     4    30769.01s  85.590%  ------ ||
|| energy_and_forces                          :     4    35940.83s  99.977%  ------ ||
|| total_time                                 :     1    35949.28s 100.000%  ------ ||
======================================================================================
Overhead of generating timer report: 
- 0 ms averaging over threads,
- 50 ms ensuring consistency across MPI ranks,
- 0 ms printing in order.

Job completed: 18-06-2024 21:20 (+0100)

onetep_launcher: ONETEP seems to have finished correctly (zero exit code).
                 Brought to you by PID 2528551 on red6098.
