 +---------------------------------------------------------------+
 |                                                               |
 |        ####### #     # ####### ####### ####### ######         |
 |        #     # ##    # #          #    #       #     #        |
 |        #     # # #   # #          #    #       #     #        |
 |        #     # #  #  # #####      #    #####   ######         |
 |        #     # #   # # #          #    #       #              |
 |        #     # #    ## #          #    #       #              |
 |        ####### #     # #######    #    ####### #              |
 |                                                               |
 |        Linear-Scaling Ab Initio Total Energy Program          |
 |                                                               |
 |          Release for academic collaborators of ODG            |
 |                                             Version 6.1.59    |
 | Remote: https://github.com/onetep-devel/onetep.git            |
 | Local branch: master                                          |
 | Commit ID: 3df6b8ca88fa1735659d3248d54c94b50edec21b           |
 | Date: Thu Oct 5 13:49:52 2023 +0200                           |
 | Working tree clean                                            |
 |                                                               |
 +---------------------------------------------------------------+
 |                                                               |
 |  Authors:                                                     |
 |  Jacek Dziedzic, Peter D. Haynes, Nicholas D. M. Hine,        |
 |  Arash A. Mostofi, Mike C. Payne and Chris-Kriton Skylaris    |
 |                                                               |
 |  Contributors:                                                |
 |  J. Aarons, L. Andrinopoulos, P. W. Avraam, R. A. Bell,       |
 |  A. Bhandari, G. A. Bramley, R. J. Charlton, S. J. Clark,     |
 |  R. J. Clements, G. C. Constantinescu, F. Corsetti,           |
 |  N. Corsini, O. Dieguez, S. M. M. Dubois, K. K. B. Duff,      |
 |  J. M. Escartin, M. Escobar Azor, A. Greco,                   |
 |  H. Helal, Q. O. Hill, L. P. Lee, J.-H. Li,                   |
 |  E. B. Linscott, G. Moynihan, D. D. O`Regan,                  |
 |  O. K. Okan, M. J. S. Phipps, C. J. Pickard,                  |
 |  J. C. A. Prentice, M. I. J. Probert, L. E. Ratcliff,         |
 |  M. Robinson, A. Ruiz Serrano, M. dos Santos Dias,            |
 |  J. S. Spencer, E. W. Tait, G. Teobaldi, D. Turban,           |
 |  V. Vitale, K. A. Wilkinson, C. Weber, J. C. Womack,          |
 |  N. Yeung and T. J. Zuehlsdorff                               |
 |                                                               |
 |                                   Copyright (c) 2004-2023     |
 |                                                               |
 |  Please cite:                                                 |
 |  "The ONETEP linear-scaling density functional theory program"|
 |   J. Chem. Phys. 152(17) 174111 (2020)                        |
 |                                                               |
 |          in all publications arising from your use of ONETEP. |
 |                                                               |
 +---------------------------------------------------------------+
 |                                                               |
 |   ONETEP is based on developments described in the following  |
 |   publications:                                               |
 |                                                               |
 |  "Nonorthogonal generalized Wannier function pseudopotential  |
 |   plane-wave method".                                         |
 |   C.-K. Skylaris, A. A. Mostofi, P. D. Haynes, O. Dieguez,    |
 |   M. C. Payne.                                                |
 |   Phys. Rev. B 66 035119 (2002).                              |
 |                                                               |
 |  "Preconditioned iterative minimization for linear-scaling    |
 |   electronic structure calculations".                         |
 |   A. A. Mostofi, P. D. Haynes, C.-K. Skylaris, M. C. Payne.   |
 |   J. Chem. Phys. 119(17), pp.8842-8848 (2003).                |
 |                                                               |
 |  "Total-energy calculations on a real space grid with         |
 |   localized functions and a plane-wave basis".                |
 |   A. A. Mostofi, C.-K. Skylaris, P. D. Haynes, M. C. Payne.   |
 |   Comput. Phys. Commun. 147, pp.788-802 (2002).               |
 |                                                               |
 |  "Accurate kinetic energy evaluation in electronic structure  |
 |   calculations with localized functions on real space grids"  |
 |   C.-K. Skylaris, A. A. Mostofi, P. D. Haynes, C. J. Pickard, |
 |   M. C. Payne.                                                |
 |   Comput. Phys. Commun. 140, pp.315-322 (2001).               |
 |                                                               |
 |  "Accurate ionic forces and geometry optimization in linear-  |
 |   scaling density-functional theory with local orbitals"      |
 |   N. D. M. Hine, M. Robinson, P. D. Haynes, C.-K. Skylaris,   |
 |   M. C. Payne, and A. A. Mostofi.                             |
 |   Phys. Rev. B 83 195102 (2011).                              |
 |                                                               |
 +---------------------------------------------------------------+

Job started: 30-10-2023 21:48 (+0000)
 
Reading parameters from file "graphite.dat" ...... done

If your calculation crashes here, before "Checking processes and threads..."
is displayed, then your stack size is insufficient.
If so, use "ulimit -s unlimited" at runtime.
You can disable this check with "check_stack_size F".

Checking processes and threads...
   Determining the default number of threads...
      No default threads set at compilation time: defaulting to 1.
      OpenMP library call suggests 8 threads.
      Hybrid MPI-OpenMP compilation detected.
      Number of MPI processes > 1.
      OMP_NUM_THREADS environment variable present and
      its value matches the one obtained from the OpenMP library call.
      Using this value as default.
      Default threads: 8
      Default applies to threads_max and threads_num_fftboxes.
      Settings in the input file override this default.
   ... done

   Running with 128 MPI processes.
   There are 16 MPI processes running on the same node as the root process.
   Each MPI process is using: 
               1 threads for simulation cell FFTs.
               1 threads for parallel FFT box operations.
               8 threads for loops over batched FFT box operations.
               8 threads in other parallel regions.
   MPI Interface: S1 (use mpi_f08) (-DMPI -DUSE_MPI_F08).
   MPI_ASYNC_PROTECTS_NONBLOCKING: Yes. MPI_SUBARRAYS_SUPPORTED: Yes.
   GPU Interface: None.
... done

Basic input checks...
Resetting ngwf_cg_rotate to TRUE for EDFT calculations
... done

Reading geometry and species blocks from file "graphite.dat" ...
  Reading POSITIONS geometry from str.xyz

  <species_atomic_set> block not found: NGWF initialisation set to SOLVE
IS: Dielectric excluded regions:
    - NONE.
IS: Assigning soft sphere radii for soft sphere solvation...
IS: No soft sphere radii specified. Default Alvarez radii used for all atoms.

----------- SOFT SPHERE RADII -----------
Li  5.333
C   4.442
-----------------------------------------

    
  Number of PPD points along a3 set to 1.  This is 
  the default value, it may have been provided also in the input file.
... done


--------------------------------------------------------------------------------
---------------------------------- INPUT FILE ----------------------------------
--------------------------------------------------------------------------------

task geometryoptimization                                                       
geom_method LBFGS                                                               
geom_continuation T                                                             
write_xyz T                                                                     
edft_grand_canonical T                                                          
edft_reference_potential  -4.42 eV                                              
edft_electrode_potential 0.1 V                                                  
edft_nelec_thres 0.000001                                                       
is_dielectric_function soft_sphere                                              
is_implicit_solvent T                                                           
is_smeared_ion_rep T                                                            
is_include_apolar T                                                             
is_solvation_properties F                                                       
is_pbe                    full                                                  
is_pbe_temperature        298.15                                                
is_pbe_bc_debye_screening T                                                     
is_pbe_neutralisation_scheme counterions_auto                                   
is_pbe_energy_tolerance 1E+50                                                   
is_bc_coarseness 5                                                              
is_bc_threshold 1E-9                                                            
is_bulk_permittivity 90.7                                                       
is_solvent_surf_tension 0.0506 N/m                                              
%block sol_ions                                                                 
Li  +1 1.0                                                                      
PF6 -1 1.0                                                                      
%endblock sol_ions                                                              
is_steric_pot_type M                                                            
is_hc_steric_dens_isovalue  0.001                                               
is_hc_steric_smearing         0.4 bohr                                          
is_steric_write T                                                               
%block species_solvent_radius                                                   
Li 3.0                                                                          
C 3.0                                                                           
%endblock species_solvent_radius                                                
multigrid_bc:   P P P                                                           
ion_ion_bc:     P P P                                                           
pspot_bc:       P P P                                                           
smeared_ion_bc: P P P                                                           
mg_max_iters_vcycle 500                                                         
mg_vcyc_smoother_iter_pre 4                                                     
mg_vcyc_smoother_iter_post 4                                                    
mg_max_res_ratio 1000.0                                                         
mg_max_iters_newton 300                                                         
edft                    : T                                                     
edft_smearing_width     : 0.1 eV                                                
spin                    : 0.0                                                   
edft_spin_fix           : 2                                                     
spin_polarized          : T                                                     
cutoff_energy :  1000 eV                                                        
kernel_cutoff : 1000 bohr                                                       
xc_functional PBE                                                               
dispersion 4                                                                    
output_detail VERBOSE                                                           
do_properties T                                                                 
cube_format F                                                                   
dx_format F                                                                     
write_denskern T                                                                
write_tightbox_ngwfs T                                                          
write_hamiltonian T                                                             
%block species                                                                  
Li Li 3  5  8.0                                                                 
C  C  6  4  8.0                                                                 
%endblock species                                                               
%block species_pot                                                              
Li '/work/e89/e89/arihant/pseudo/Li.usp'                                        
C '/work/e89/e89/arihant/pseudo/C.usp'                                          
%endblock species_pot                                                           
%BLOCK LATTICE_CART                                                             
ang                                                                             
34.16920551     0.00000000     0.00000000                                       
0.00000000    19.72760000     0.00000000                                        
0.00000000     0.00000000   100.02798000                                        
%ENDBLOCK LATTICE_CART                                                          
positions_xyz_file str.xyz                                                      
     Hash =   000002115914573592683570

--------------------------------------------------------------------------------
-------------------------------- END INPUT FILE --------------------------------
--------------------------------------------------------------------------------


 
 ESDF WARNING(1): "ispbeenergytolerance" (esdf_physical) has no units. Assume "hartree".
<<<<<<<<<<<<<<<<<<<<<<<<<<<<<<<<< Full system >>>>>>>>>>>>>>>>>>>>>>>>>>>>>>>>>>
<<<<<<<<<<<<<<<<<<<<<<<<< Pseudopotential information >>>>>>>>>>>>>>>>>>>>>>>>>>
File: /work/e89/e89/arihant/pseudo/Li.usp [ 2001 points up to Gmax=  52.9 (1/bohr)]
  Atomic number:  3;  ionic charge:  3.000000
    Shell 1: l = 0; rc = 1.19 bohr
    Shell 2: l = 0; rc = 1.25 bohr
File: /work/e89/e89/arihant/pseudo/C.usp [ 2001 points up to Gmax=  52.9 (1/bohr)]
  Atomic number:  6;  ionic charge:  4.000000
    Shell 1: l = 0; rc = 1.19 bohr
  Core charge supplied for Nonlinear Core Corrections
<<<<<<<<<<<<<<<<<<<<<<<<<<<<<<<<<<<<<<<<>>>>>>>>>>>>>>>>>>>>>>>>>>>>>>>>>>>>>>>>

-------------------------- Atom counting information ---------------------------
Symbol    Natoms    Nngwfs    Nprojs
  Li        37       185        74
  C        512      2048       512
.......   ......    ......    ......
Totals:    549      2233       586
--------------------------------------------------------------------------------

=============================== PSINC grid sizes ===============================
                      Simulation cell:  143 x  91 x 416
                              FFT-box:  117 x  91 x 117
                                  PPD:   11 x   7 x   1
Grid space d1=  0.451541543008a0 (KE cutoff=  37.25706Eh =1013.81618eV)
Grid space d2=  0.409667706512a0 (KE cutoff=  45.26271Eh =1231.66098eV)
Grid space d3=  0.454388192297a0 (KE cutoff=  36.79171Eh =1001.15326eV)
================================================================================
  
WARNING in cell_grid_distribute:
Average of less than one 23-slab per proc, so workload cannot be
equally balanced between procs.

********************* Fourier parallelisation information **********************
       Coarse grid (whole simulation cell) dimensions:    143    91   416
          Real-space ('12') slabs/proc (min max mean):      3     4     3
         Recip-space ('23') slabs/proc (min max mean):      0     1     0
********************************************************************************

********************* Fourier parallelisation information **********************
       Double grid (whole simulation cell) dimensions:    286   182   832
          Real-space ('12') slabs/proc (min max mean):      6     7     6
         Recip-space ('23') slabs/proc (min max mean):      1     2     1
********************************************************************************

********************* Fourier parallelisation information **********************
         Fine grid (whole simulation cell) dimensions:    288   184   832
          Real-space ('12') slabs/proc (min max mean):      6     7     6
         Recip-space ('23') slabs/proc (min max mean):      1     2     1
         Grid scale modified to satisfy multigrid solver grid constraints
         Grid scale values after modifification:         2.01  2.02  2.00
********************************************************************************
ONETEP fine grid is 288 x 184 x 832 gridpoints, 64.5704 x 37.2798 x 189.0255 bohr.
FD multigrid is     288 x 184 x 832 gridpoints, 64.5704 x 37.2798 x 189.0255 bohr.


Atom SCF Calculation for Li : Z (AE atom) =   3 : Z (PS atom) =   3
Config String:
Orbitals (num,occ):  3     2.00 1.00 0.00
Orbitals   (num,l):  3        0    0    1
Real-space Grid (nr,dr,rmax): 1343    0.0059612519    8.0000000000
Spherical Bessel Basis (nsws,lmax,cutoff):   37    1  220.4959463253
Confining potential (l,width,scale):  0    3.0000000000  100.0000000000
Confining potential (l,width,scale):  1    3.0000000000  100.0000000000
  1         -3.7050169094   -5.2301177776    2.5388568852   -0.9989538802
  2         -6.0510920273   -4.2679357854    3.2724001845   -1.3422946715
  3         -6.7975021434   -3.8722499620    3.6648237887   -1.5325279919
  4         -7.0147472228   -3.7673066376    3.7864613280   -1.5966989055
  5         -7.0774132854   -3.7446783348    3.8157063634   -1.6161454686
  6         -7.0951992563   -3.7420177453    3.8204515040   -1.6217593843
  7         -7.1001226024   -3.7430426481    3.8200527077   -1.6233132433
  8         -7.1014239576   -3.7441529610    3.8191274553   -1.6237164860
  9         -7.1017352306   -3.7448434699    3.8184905098   -1.6238077213
 10         -7.1017916056   -3.7452114113    3.8181373932   -1.6238209669
 11         -7.1017908912   -3.7453946820    3.8179578223   -1.6238181917
 12         -7.1017822190   -3.7454828903    3.8178702968   -1.6238141227
 13         -7.1017768840   -3.7455162316    3.8178369316   -1.6238119017
 14         -7.1017732849   -3.7455353767    3.8178176959   -1.6238104459
 15         -7.1017709700   -3.7455463461    3.8178066371   -1.6238095253
 16         -7.1017695244   -3.7455526225    3.8178002910   -1.6238089565
 17         -7.1017686390   -3.7455562110    3.8177966534   -1.6238086105
 18         -7.1017681040   -3.7455582619    3.8177945697   -1.6238084022
 19         -7.1017677838   -3.7455594341    3.8177933764   -1.6238082778
 20         -7.1017675934   -3.7455601042    3.8177926929   -1.6238082039
 21         -7.1017674808   -3.7455604874    3.8177923014   -1.6238081602
 22         -7.1017674145   -3.7455607066    3.8177920771   -1.6238081344
Atom SCF converged after  22 iterations to a total energy of     -7.10176741

Atom SCF Calculation for C  : Z (AE atom) =   6 : Z (PS atom) =   4
Config String:
Orbitals (num,occ):  2     2.00 2.00
Orbitals   (num,l):  2        0    1
Real-space Grid (nr,dr,rmax): 1343    0.0059612519    8.0000000000
Spherical Bessel Basis (nsws,lmax,cutoff):   37    1  220.4959463253
Confining potential (l,width,scale):  0    3.0000000000  100.0000000000
Confining potential (l,width,scale):  1    3.0000000000  100.0000000000
  1         -5.8177092822   -1.2555419264    4.5135233515   -1.7471920893
  2         -5.6032261188   -1.3440047989    4.4246587726   -1.7090653419
  3         -5.5936068668   -1.3561735374    4.4140765627   -1.7034094417
  4         -5.5958505747   -1.3587284552    4.4121342699   -1.7022848669
  5         -5.5969687665   -1.3601698222    4.4109982405   -1.7017057890
  6         -5.5975400979   -1.3609792837    4.4103423276   -1.7013975981
  7         -5.5978435204   -1.3614297943    4.4099696476   -1.7012314972
  8         -5.5980096069   -1.3616786122    4.4097605138   -1.7011416075
  9         -5.5981021113   -1.3618152853    4.4096441572   -1.7010929151
 10         -5.5981539939   -1.3618900852    4.4095797860   -1.7010665406
 11         -5.5981831160   -1.3619309228    4.4095443105   -1.7010522599
 12         -5.5981994243   -1.3619531807    4.4095248124   -1.7010445305
 13         -5.5982085235   -1.3619652972    4.4095141175   -1.7010403487
 14         -5.5982135796   -1.3619718867    4.4095082606   -1.7010380870
 15         -5.5982163780   -1.3619754676    4.4095050573   -1.7010368642
 16         -5.5982179208   -1.3619774123    4.4095033073   -1.7010362032
 17         -5.5982187685   -1.3619784678    4.4095023522   -1.7010358460
 18         -5.5982192328   -1.3619790404    4.4095018314   -1.7010356530
 19         -5.5982194864   -1.3619793509    4.4095015476   -1.7010355488
 20         -5.5982196245   -1.3619795192    4.4095013931   -1.7010354925
 21         -5.5982196995   -1.3619796104    4.4095013090   -1.7010354621
Atom SCF converged after  21 iterations to a total energy of     -5.59821970

BC: Task: GEOMETRYOPTIMIZATION
BC: +++++++++++++++ Summary of boundary conditions ++++++++++++++
BC: |       Component       |     Keyword     |   Periodicity   |
BC: |                       |                 |     X  Y  Z [1] |
BC: |-----------------------------------------------------------|
BC: | Ion-ion               | ion_ion_bc [2]  |     P  P  P     |
BC: | Local pseudopotential | pspot_bc [3]    |     P  P  P     |
BC: | Multigrid solver      | multigrid_bc    |     P  P  P     |
BC: | Smeared ions          | smeared_ion_bc  |     P  P  P     |
BC: | Van der Waals         | vdw_bc          |     P  P  P     |
BC: +++++++++++++++++++++++++++++++++++++++++++++++++++++++++++++
BC: P: Periodic, O: Open.
BC: [1] Not strictly along X, Y, Z but rather along lattice vectors A1, A2, A3.
BC: [2] Also affected by: pbc_correction_cutoff, cutoff_coulomb_type,
BC:     is_smeared_ion_rep, is_implicit_solvent, openbc_ion_ion.
BC: [3] Also affected by: is_smeared_ion_rep, is_implicit_solvent, openbc_pspot.

================================================================================
<<<<<<<<<<<<<<<< Resuming previous ONETEP Geometry Optimisation >>>>>>>>>>>>>>>>
================================================================================

 Geometry Optimisation: output file is "graphite.geom"
 
 Reading continuation file "graphite.continuation" ...done
 Geometry Optimisation: read_tightbox_ngwfs parameter over-ridden to TRUE
 Geometry Optimisation: read_hamiltonian parameter over-ridden to T
 
                           -------------------------------
                                     Cell Contents
                           -------------------------------
 
            xxxxxxxxxxxxxxxxxxxxxxxxxxxxxxxxxxxxxxxxxxxxxxxxxxxxxxxxxxxx
            x  Element    Atom      Absolute co-ordinates of atoms     x
            x            Number        x           y           z       x
            x----------------------------------------------------------x
            x    Li        1       20.323714    6.768350   16.430260   x
            x    Li        2       15.787593    9.434367   16.451928   x
            x    Li        3       20.384600   12.085894   16.647515   x
            x    Li        4       15.642953    4.067143   16.715962   x
            x    Li        5       18.042119    8.112290   21.447151   x
            x    C         6       18.911139    9.194940   12.807287   x
            x    C         7       13.480996    9.206156   12.817057   x
            x    C         8       14.837507   11.559190   12.820674   x
            x    C         9       17.557961   11.558107   12.901200   x
            x    C        10       51.197629   27.833467   12.942676   x
            x    C        11       45.816683   27.833412   12.945663   x
            x    C        12       47.158315   30.167646   12.943717   x
            x    C        13       49.856431   30.167633   12.942179   x
            x    C        14       14.838955    6.853178   12.895262   x
            x    C        15       17.565028    6.861765   12.794656   x
            x    C        16       21.615248   13.893067   12.919664   x
            x    C        17       18.905359   13.891314   12.906000   x
            x    C        18       13.503596   13.883137   12.844612   x
            x    C        19       14.853613   16.207047   12.917927   x
            x    C        20       17.560726   16.214016   12.938177   x
            x    C        21       47.158140   25.498896   12.946349   x
            x    C        22       49.856595   25.498845   12.944676   x
            x    C        23       53.877526   32.491659   12.950225   x
            x    C        24       51.191165   32.491555   12.923812   x
            x    C        25       45.823399   32.491370   12.923971   x
            x    C        26       47.158174   34.815643   12.950872   x
            x    C        27       49.856526   34.815959   12.949021   x
            x    C        28       14.842855    2.176453   12.921405   x
            x    C        29       17.565205    2.181523   12.963749   x
            x    C        30       22.960330    2.178041   12.922925   x
            x    C        31        9.467843    2.186866   12.936220   x
            x    C        32       63.280022    2.205801   12.958343   x
            x    C        33        6.770225    2.190636   12.944511   x
            x    C        34       31.033904    2.202525   12.953950   x
            x    C        35        1.406379    2.203941   12.957003   x
            x    C        36       25.661333    2.184544   12.931630   x
            x    C        37       33.731003    2.205354   12.959671   x
            x    C        38       39.095521    2.195694   12.962221   x
            x    C        39       55.218249    2.196531   12.957951   x
            x    C        40       57.917636    2.196132   12.956773   x
            x    C        41       47.158687    2.207720   12.950667   x
            x    C        42       41.794744    2.196342   12.959706   x
            x    C        43       49.856383    2.207843   12.948397   x
            x    C        44       18.909349    4.513856   12.883065   x
            x    C        45       13.492785    4.521170   12.898306   x
            x    C        46       10.801999    4.523876   12.931159   x
            x    C        47       27.011945    4.528802   12.930646   x
            x    C        48        5.424644    4.528445   12.948389   x
            x    C        49       21.615311    4.512361   12.877963   x
            x    C        50       59.259490    4.532737   12.955002   x
            x    C        51        2.741156    4.530685   12.933665   x
            x    C        52       35.068151    4.530534   12.938300   x
            x    C        53       61.944670    4.531725   12.933908   x
            x    C        54       29.697427    4.529988   12.921726   x
            x    C        55       43.137422    4.532778   12.958215   x
            x    C        56       51.190587    4.532981   12.931047   x
            x    C        57       37.753317    4.531959   12.961946   x
            x    C        58       53.875847    4.533041   12.957169   x
            x    C        59       45.823722    4.532823   12.932391   x
            x    C        60       22.972118    6.863841   12.886860   x
            x    C        61       63.279189    6.858239   12.961193   x
            x    C        62        6.767961    6.868380   12.936913   x
            x    C        63       31.035830    6.856972   12.950349   x
            x    C        64       39.096188    6.868602   12.958535   x
            x    C        65       57.916467    6.868977   12.952914   x
            x    C        66        1.405100    6.858049   12.960287   x
            x    C        67        9.459638    6.867382   12.911342   x
            x    C        68       25.671551    6.866415   12.923028   x
            x    C        69       33.732042    6.857337   12.959602   x
            x    C        70       55.217781    6.869282   12.955851   x
            x    C        71       47.159131    6.857881   12.961132   x
            x    C        72       41.794343    6.869008   12.957937   x
            x    C        73       49.856535    6.858178   12.958660   x
            x    C        74       51.197062    9.194356   12.957241   x
            x    C        75       59.252671    9.194545   12.930235   x
            x    C        76        2.747749    9.196236   12.956844   x
            x    C        77       27.009572    9.198842   12.925724   x
            x    C        78       35.075632    9.195034   12.959428   x
            x    C        79       43.130956    9.194247   12.936898   x
            x    C        80       53.881997    9.194426   12.933394   x
            x    C        81       61.937821    9.195467   12.955940   x
            x    C        82        5.430585    9.197158   12.920210   x
            x    C        83       21.621431    9.203584   12.901417   x
            x    C        84       29.690469    9.196648   12.949447   x
            x    C        85       37.759977    9.194422   12.935827   x
            x    C        86       45.817247    9.194244   12.961498   x
            x    C        87       10.795005    9.200393   12.841980   x
            x    C        88       47.159148   11.530260   12.959815   x
            x    C        89       55.217860   11.519630   12.959581   x
            x    C        90       63.280434   11.532443   12.955604   x
            x    C        91       31.035587   11.535520   12.947398   x
            x    C        92       39.095618   11.520383   12.961280   x
            x    C        93       49.856474   11.530157   12.957394   x
            x    C        94       57.916859   11.520164   12.955649   x
            x    C        95        1.406467   11.534014   12.955369   x
            x    C        96       33.731833   11.532915   12.954919   x
            x    C        97       41.794082   11.519463   12.961430   x
            x    C        98        6.769773   11.524462   12.932897   x
            x    C        99       22.969671   11.535457   12.962353   x
            x    C       100       25.672732   11.531428   12.962042   x
            x    C       101        9.466494   11.527092   12.889162   x
            x    C       102       45.823377   13.855188   12.937761   x
            x    C       103       43.136527   13.855876   12.960288   x
            x    C       104       51.190852   13.855231   12.936371   x
            x    C       105       59.259555   13.856629   12.953852   x
            x    C       106       35.068190   13.859055   12.936906   x
            x    C       107       53.876442   13.855945   12.959328   x
            x    C       108       61.945636   13.857676   12.932450   x
            x    C       109       29.696944   13.862160   12.921223   x
            x    C       110       37.753463   13.857344   12.960827   x
            x    C       111        2.744266   13.859455   12.934359   x
            x    C       112       27.011385   13.867551   12.946489   x
            x    C       113        5.428702   13.862957   12.948439   x
            x    C       114       10.817911   13.872432   12.886527   x
            x    C       115       47.158327   16.180172   12.963454   x
            x    C       116       55.218772   16.191710   12.957141   x
            x    C       117       41.793595   16.191716   12.958790   x
            x    C       118       49.856892   16.180177   12.961136   x
            x    C       119       39.095009   16.192903   12.959078   x
            x    C       120       63.282646   16.181813   12.961555   x
            x    C       121       31.033176   16.188427   12.952092   x
            x    C       122       57.917582   16.192186   12.953982   x
            x    C       123       33.731229   16.183930   12.960830   x
            x    C       124        6.774979   16.199627   12.947124   x
            x    C       125        1.409783   16.184560   12.961316   x
            x    C       126       25.664845   16.212061   12.933303   x
            x    C       127       22.962171   16.222955   12.929032   x
            x    C       128        9.476341   16.204534   12.928315   x
            x    C       129       51.197543   18.515992   12.955840   x
            x    C       130       45.816412   18.516038   12.959393   x
            x    C       131       43.129519   18.516244   12.936406   x
            x    C       132       53.883662   18.516222   12.933709   x
            x    C       133       35.073073   18.519493   12.960989   x
            x    C       134       59.254212   18.516791   12.933446   x
            x    C       135       37.758773   18.517095   12.937387   x
            x    C       136       61.940844   18.517190   12.958490   x
            x    C       137       29.689127   18.524408   12.947535   x
            x    C       138        2.753457   18.518604   12.958483   x
            x    C       139       26.999311   18.529623   12.914948   x
            x    C       140        5.440051   18.522173   12.934380   x
            x    C       141       10.818218   18.529675   12.920697   x
            x    C       142       18.915285   18.539267   12.934962   x
            x    C       143       21.613095   18.541621   12.906765   x
            x    C       144       13.510399   18.532665   12.937175   x
            x    C       145       47.158057   20.851454   12.951859   x
            x    C       146       49.856678   20.851167   12.950029   x
            x    C       147       55.218981   20.840443   12.959100   x
            x    C       148       41.793912   20.840654   12.959832   x
            x    C       149       31.030669   20.857227   12.956537   x
            x    C       150       39.094882   20.840834   12.961899   x
            x    C       151       63.284072   20.851455   12.958112   x
            x    C       152       33.730157   20.853749   12.958821   x
            x    C       153       57.918164   20.840836   12.957884   x
            x    C       154        1.412231   20.852788   12.957295   x
            x    C       155        6.779736   20.845297   12.962319   x
            x    C       156       22.952999   20.856040   12.945180   x
            x    C       157       25.657719   20.853967   12.947742   x
            x    C       158       14.861680   20.866923   12.947344   x
            x    C       159        9.481744   20.848758   12.962534   x
            x    C       160       17.566321   20.868316   12.941514   x
            x    C       161       51.191447   23.175216   12.924612   x
            x    C       162       45.822855   23.175330   12.924880   x
            x    C       163       43.136249   23.175503   12.952668   x
            x    C       164       59.260302   23.175742   12.955287   x
            x    C       165       37.752624   23.175663   12.958935   x
            x    C       166       53.877677   23.175529   12.953077   x
            x    C       167       27.001405   23.184057   12.958935   x
            x    C       168       35.066287   23.177102   12.936800   x
            x    C       169        2.750171   23.175266   12.935779   x
            x    C       170       29.691037   23.180618   12.936506   x
            x    C       171       61.947037   23.175221   12.935120   x
            x    C       172       10.829436   23.181984   12.962215   x
            x    C       173       18.911763   23.187524   12.928641   x
            x    C       174        5.437539   23.177643   12.959709   x
            x    C       175       21.602821   23.188274   12.951701   x
            x    C       176       13.520413   23.183791   12.936185   x
            x    C       177       55.219495   25.510023   12.950684   x
            x    C       178       31.027119   25.502020   12.961839   x
            x    C       179       39.095758   25.510030   12.954602   x
            x    C       180       63.284206   25.498807   12.962856   x
            x    C       181        6.783140   25.509916   12.958176   x
            x    C       182       25.653686   25.515890   12.958868   x
            x    C       183       33.727872   25.500207   12.961311   x
            x    C       184       41.794242   25.509985   12.951313   x
            x    C       185       57.917959   25.510021   12.951589   x
            x    C       186        1.413376   25.498671   12.961225   x
            x    C       187       22.950510   25.515734   12.961006   x
            x    C       188       14.864685   25.503118   12.965847   x
            x    C       189        9.484537   25.511405   12.963157   x
            x    C       190       17.567462   25.504328   12.964379   x
            x    C       191       18.917601   27.833291   12.963839   x
            x    C       192       26.993412   27.835168   12.934442   x
            x    C       193       35.071331   27.834363   12.958107   x
            x    C       194       59.254323   27.833467   12.930816   x
            x    C       195        2.756723   27.832670   12.956776   x
            x    C       196       10.825508   27.829947   12.941514   x
            x    C       197       21.607806   27.834084   12.941030   x
            x    C       198       29.682689   27.835638   12.955826   x
            x    C       199       37.758532   27.833597   12.932287   x
            x    C       200       53.883784   27.833233   12.924118   x
            x    C       201       61.940683   27.833720   12.958508   x
            x    C       202        5.444811   27.831396   12.933596   x
            x    C       203       13.516082   27.831415   12.963310   x
            x    C       204       43.130566   27.833121   12.926254   x
            x    C       205       14.863985   30.158842   12.954088   x
            x    C       206       22.950773   30.153954   12.961237   x
            x    C       207       31.027605   30.168381   12.956600   x
            x    C       208       63.283562   30.168511   12.958224   x
            x    C       209        6.781217   30.152370   12.961098   x
            x    C       210       17.566804   30.160175   12.955982   x
            x    C       211       25.654526   30.154399   12.959248   x
            x    C       212       33.727755   30.169215   12.956561   x
            x    C       213        1.411612   30.166651   12.957298   x
            x    C       214        9.483735   30.149861   12.962455   x
            x    C       215       39.095511   30.157195   12.956032   x
            x    C       216       55.219240   30.156746   12.952820   x
            x    C       217       57.918347   30.157079   12.952738   x
            x    C       218       41.794872   30.156739   12.953505   x
            x    C       219       13.518035   32.478293   12.923932   x
            x    C       220       10.826655   32.480101   12.949041   x
            x    C       221       18.911097   32.480318   12.932611   x
            x    C       222       27.001324   32.487830   12.955220   x
            x    C       223        2.747191   32.490178   12.935513   x
            x    C       224       21.603176   32.481719   12.954198   x
            x    C       225       29.690813   32.490321   12.934047   x
            x    C       226       61.946801   32.491750   12.932735   x
            x    C       227        5.434702   32.487208   12.956623   x
            x    C       228       35.065320   32.492062   12.934095   x
            x    C       229       59.260375   32.491707   12.950826   x
            x    C       230       37.752199   32.492488   12.954815   x
            x    C       231       43.136888   32.491571   12.949844   x
            x    C       232       14.856053   34.794109   12.951788   x
            x    C       233       22.952288   34.816661   12.951893   x
            x    C       234        9.477544   34.815446   12.943321   x
            x    C       235       17.566689   34.798155   12.963817   x
            x    C       236        6.774927   34.819556   12.947350   x
            x    C       237       31.029966   34.812945   12.961437   x
            x    C       238       63.282412   34.815112   12.961039   x
            x    C       239       25.657371   34.818061   12.946381   x
            x    C       240        1.409748   34.812866   12.960959   x
            x    C       241       39.095261   34.826921   12.953046   x
            x    C       242       33.729234   34.815644   12.961317   x
            x    C       243       57.918270   34.826572   12.948801   x
            x    C       244       55.219333   34.826977   12.949642   x
            x    C       245       41.794431   34.826633   12.950518   x
            x    C       246       18.917416   37.127441   12.970768   x
            x    C       247       13.499219   37.123700   12.940004   x
            x    C       248       10.809627   37.133543   12.911180   x
            x    C       249       21.612552   37.132168   12.928062   x
            x    C       250        2.750394   37.148420   12.956008   x
            x    C       251       26.998965   37.142550   12.921713   x
            x    C       252        5.435610   37.143927   12.923921   x
            x    C       253       29.688568   37.146755   12.954151   x
            x    C       254       61.939614   37.149888   12.957218   x
            x    C       255       35.072869   37.149670   12.960433   x
            x    C       256       59.253908   37.150923   12.930262   x
            x    C       257       37.758656   37.151226   12.934556   x
            x    C       258       43.130529   37.151242   12.930069   x
            x    C       259       51.197017   37.151779   12.947806   x
            x    C       260       53.883167   37.151386   12.927380   x
            x    C       261       45.817037   37.151582   12.951390   x
            x    Li      262        0.051117   37.130306    9.399344   x
            x    Li      263        0.056505   27.810503    9.398290   x
            x    Li      264        0.054713   18.490909    9.399048   x
            x    Li      265        0.047834    9.170331    9.399086   x
            x    Li      266        8.131644   32.451761    9.397836   x
            x    Li      267        8.135750   23.156852    9.401585   x
            x    Li      268        8.105670   13.856534    9.377653   x
            x    Li      269        8.103845    4.501877    9.388101   x
            x    Li      270       16.197624    9.200117    9.333831   x
            x    Li      271       16.213946   18.532961    9.381013   x
            x    Li      272       16.223013   27.807509    9.396975   x
            x    Li      273       16.232038   37.089986    9.403457   x
            x    Li      274       24.322092   32.451249    9.394694   x
            x    Li      275       24.323173   23.166452    9.395090   x
            x    Li      276       24.344088   13.848277    9.397966   x
            x    Li      277       24.364201    4.478069    9.376209   x
            x    Li      278       32.389768   37.127352    9.399916   x
            x    Li      279       32.384575   27.811061    9.397939   x
            x    Li      280       32.387611   18.495626    9.397921   x
            x    Li      281       32.408604    9.170145    9.397032   x
            x    Li      282       40.439967   32.468540    9.391062   x
            x    Li      283       40.439956   23.151479    9.394465   x
            x    Li      284       40.443972   13.832489    9.399955   x
            x    Li      285       40.444191    4.509364    9.400338   x
            x    Li      286       48.488275   37.133974    9.389906   x
            x    Li      287       48.489128   27.810053    9.383350   x
            x    Li      288       48.488434   18.488065    9.396909   x
            x    Li      289       48.488446    9.169373    9.400539   x
            x    Li      290       56.549229   32.468652    9.389937   x
            x    Li      291       56.549551   23.151014    9.393468   x
            x    Li      292       56.547121   13.833160    9.397314   x
            x    Li      293       56.546940    4.509324    9.397509   x
            x    C       294       18.915867    9.194289    5.856614   x
            x    C       295       13.523142    9.194458    5.837165   x
            x    C       296       14.867941   11.531125    5.836387   x
            x    C       297       17.570929   11.530935    5.847972   x
            x    C       298       51.199159   27.833425    5.814605   x
            x    C       299       45.812067   27.833590    5.810826   x
            x    C       300       47.155992   30.168868    5.815011   x
            x    C       301       49.855524   30.168774    5.816664   x
            x    C       302       14.868398    6.857552    5.845415   x
            x    C       303       17.571109    6.857502    5.852972   x
            x    C       304       21.598803   13.854880    5.854797   x
            x    C       305       18.909199   13.855611    5.872681   x
            x    C       306       13.530001   13.855657    5.852283   x
            x    C       307       14.868605   16.179499    5.823883   x
            x    C       308       17.570832   16.179840    5.831559   x
            x    C       309       47.155765   25.497990    5.808623   x
            x    C       310       49.855734   25.498196    5.810323   x
            x    C       311       53.880931   32.493755    5.815060   x
            x    C       312       51.193068   32.493298    5.837457   x
            x    C       313       45.818392   32.493257    5.836015   x
            x    C       314       47.155688   34.817802    5.814129   x
            x    C       315       49.855854   34.818001    5.815511   x
            x    C       316       14.869112    2.208421    5.857584   x
            x    C       317       17.571041    2.208410    5.857897   x
            x    C       318       22.943122    2.196980    5.832926   x
            x    C       319        9.496955    2.197298    5.830462   x
            x    C       320       63.294383    2.209108    5.826670   x
            x    C       321        6.794765    2.196766    5.820148   x
            x    C       322       31.016476    2.208485    5.826946   x
            x    C       323        1.424127    2.208544    5.827158   x
            x    C       324       25.645895    2.196682    5.817273   x
            x    C       325       33.716985    2.208760    5.825945   x
            x    C       326       39.086360    2.198019    5.822704   x
            x    C       327       55.224710    2.198595    5.818187   x
            x    C       328       57.925088    2.198639    5.822094   x
            x    C       329       47.155785    2.209473    5.818347   x
            x    C       330       41.786826    2.198172    5.820605   x
            x    C       331       49.855726    2.209637    5.819327   x
            x    C       332       18.909482    4.533114    5.883063   x
            x    C       333       13.530251    4.532895    5.874787   x
            x    C       334       10.840668    4.533282    5.842941   x
            x    C       335       26.990426    4.533414    5.820711   x
            x    C       336        5.450419    4.533431    5.818740   x
            x    C       337       21.599005    4.533295    5.855756   x
            x    C       338       59.268272    4.534136    5.827302   x
            x    C       339        2.761573    4.533292    5.843230   x
            x    C       340       35.054759    4.533187    5.845379   x
            x    C       341       61.956495    4.533679    5.845985   x
            x    C       342       29.679469    4.533246    5.843659   x
            x    C       343       43.130488    4.533878    5.823788   x
            x    C       344       51.192852    4.534164    5.841194   x
            x    C       345       37.743081    4.533738    5.826047   x
            x    C       346       53.880862    4.534255    5.820173   x
            x    C       347       45.818508    4.533983    5.841002   x
            x    C       348       22.943246    6.869009    5.859087   x
            x    C       349       63.293733    6.858235    5.821640   x
            x    C       350        6.794633    6.869142    5.824040   x
            x    C       351       31.016648    6.858260    5.824397   x
            x    C       352       39.086773    6.869032    5.827793   x
            x    C       353       57.924747    6.869430    5.826678   x
            x    C       354        1.424160    6.858207    5.822012   x
            x    C       355        9.496461    6.869238    5.836199   x
            x    C       356       25.645579    6.869496    5.837091   x
            x    C       357       33.717700    6.857981    5.820759   x
            x    C       358       55.224686    6.869624    5.824967   x
            x    C       359       47.155648    6.858193    5.820878   x
            x    C       360       41.786882    6.869048    5.827290   x
            x    C       361       49.855856    6.858559    5.821909   x
            x    C       362       51.199010    9.193666    5.826767   x
            x    C       363       59.262150    9.193993    5.844475   x
            x    C       364        2.767717    9.194109    5.824767   x
            x    C       365       26.983777    9.193781    5.856183   x
            x    C       366       35.061336    9.194036    5.821410   x
            x    C       367       43.124275    9.193486    5.845701   x
            x    C       368       53.887009    9.193778    5.844663   x
            x    C       369       61.950255    9.194266    5.822026   x
            x    C       370        5.456688    9.193902    5.842444   x
            x    C       371       21.604901    9.193798    5.885764   x
            x    C       372       29.673035    9.194108    5.829479   x
            x    C       373       37.749659    9.193755    5.844199   x
            x    C       374       45.812132    9.193555    5.823965   x
            x    C       375       10.833810    9.194013    5.857326   x
            x    C       376       47.155771   11.528653    5.827172   x
            x    C       377       55.224500   11.517876    5.820808   x
            x    C       378       63.294081   11.529726    5.824682   x
            x    C       379       31.016558   11.529728    5.827917   x
            x    C       380       39.086591   11.518265    5.822892   x
            x    C       381       49.855632   11.528542    5.828164   x
            x    C       382       57.924978   11.518407    5.821966   x
            x    C       383        1.424064   11.529768    5.825548   x
            x    C       384       33.717309   11.529817    5.823713   x
            x    C       385       41.787022   11.517962    5.822983   x
            x    C       386        6.794677   11.518696    5.818512   x
            x    C       387       22.942925   11.518658    5.856813   x
            x    C       388       25.645481   11.518595    5.837830   x
            x    C       389        9.496604   11.518911    5.826668   x
            x    C       390       45.818377   13.852817    5.845768   x
            x    C       391       43.130484   13.853331    5.825322   x
            x    C       392       51.192934   13.852793    5.846018   x
            x    C       393       59.268532   13.853963    5.825935   x
            x    C       394       35.054657   13.854443    5.844155   x
            x    C       395       53.880852   13.853436    5.821954   x
            x    C       396       61.956633   13.854291    5.844453   x
            x    C       397       29.678925   13.854676    5.844678   x
            x    C       398       37.742945   13.854005    5.824823   x
            x    C       399        2.761683   13.854501    5.842297   x
            x    C       400       26.989485   13.854527    5.826811   x
            x    C       401        5.450445   13.854636    5.815919   x
            x    C       402       10.840648   13.854853    5.827259   x
            x    C       403       47.155649   16.177380    5.822704   x
            x    C       404       55.224962   16.188807    5.824451   x
            x    C       405       41.786605   16.189005    5.826545   x
            x    C       406       49.855791   16.177434    5.823660   x
            x    C       407       39.086385   16.189356    5.826977   x
            x    C       408       63.294498   16.178762    5.821877   x
            x    C       409       31.015821   16.179095    5.822605   x
            x    C       410       57.925185   16.189202    5.826305   x
            x    C       411       33.716863   16.178951    5.821483   x
            x    C       412        6.795056   16.190933    5.816757   x
            x    C       413        1.424660   16.179243    5.822081   x
            x    C       414       25.644890   16.190513    5.826032   x
            x    C       415       22.943176   16.190584    5.836823   x
            x    C       416        9.496871   16.190477    5.819048   x
            x    C       417       51.199249   18.513266    5.824925   x
            x    C       418       45.812088   18.513389    5.822119   x
            x    C       419       43.123984   18.513419    5.844365   x
            x    C       420       53.887269   18.513232    5.843498   x
            x    C       421       35.060241   18.514289    5.823958   x
            x    C       422       59.262996   18.513598    5.845849   x
            x    C       423       37.748513   18.513871    5.844943   x
            x    C       424       61.951078   18.514230    5.824122   x
            x    C       425       29.672033   18.514928    5.824236   x
            x    C       426        2.768498   18.514853    5.826162   x
            x    C       427       26.982984   18.514903    5.841757   x
            x    C       428        5.457404   18.515065    5.842114   x
            x    C       429       10.835136   18.514998    5.836997   x
            x    C       430       18.915353   18.515449    5.821098   x
            x    C       431       21.605016   18.515120    5.845259   x
            x    C       432       13.524658   18.515415    5.813041   x
            x    C       433       47.155859   20.848759    5.820764   x
            x    C       434       49.855611   20.848731    5.821907   x
            x    C       435       55.224954   20.837691    5.819122   x
            x    C       436       41.786548   20.838088    5.820311   x
            x    C       437       31.015361   20.849731    5.826535   x
            x    C       438       39.085919   20.838311    5.822169   x
            x    C       439       63.295183   20.849550    5.827388   x
            x    C       440       33.716247   20.849904    5.825981   x
            x    C       441       57.925605   20.838121    5.822487   x
            x    C       442        1.425298   20.849747    5.828450   x
            x    C       443        6.795695   20.839317    5.821926   x
            x    C       444       22.943062   20.839567    5.818986   x
            x    C       445       25.644760   20.839014    5.817364   x
            x    C       446       14.868954   20.850757    5.808853   x
            x    C       447        9.497434   20.839444    5.818867   x
            x    C       448       17.571354   20.850948    5.810437   x
            x    C       449       51.193153   23.173452    5.836416   x
            x    C       450       45.818277   23.173680    5.835053   x
            x    C       451       43.130397   23.173830    5.818479   x
            x    C       452       59.269160   23.173523    5.826431   x
            x    C       453       37.742211   23.174055    5.823878   x
            x    C       454       53.880933   23.173517    5.816575   x
            x    C       455       26.988703   23.174449    5.818908   x
            x    C       456       35.053510   23.173788    5.845431   x
            x    C       457        2.763251   23.174085    5.847674   x
            x    C       458       29.677611   23.174119    5.843083   x
            x    C       459       61.957640   23.173586    5.846945   x
            x    C       460       10.841640   23.174693    5.821849   x
            x    C       461       18.909600   23.174999    5.835116   x
            x    C       462        5.452166   23.174451    5.825622   x
            x    C       463       21.599096   23.174766    5.820014   x
            x    C       464       13.530978   23.175056    5.834550   x
            x    C       465       55.225066   25.509005    5.818805   x
            x    C       466       31.014994   25.498493    5.821882   x
            x    C       467       39.086088   25.509085    5.823161   x
            x    C       468       63.295230   25.497852    5.823578   x
            x    C       469        6.796447   25.509519    5.825878   x
            x    C       470       25.644451   25.509702    5.818358   x
            x    C       471       33.716163   25.498301    5.821260   x
            x    C       472       41.786554   25.509101    5.819587   x
            x    C       473       57.925228   25.508879    5.823366   x
            x    C       474        1.425902   25.498250    5.824709   x
            x    C       475       22.943090   25.509745    5.820897   x
            x    C       476       14.869362   25.498934    5.815373   x
            x    C       477        9.497651   25.509613    5.825252   x
            x    C       478       17.571364   25.498955    5.814416   x
            x    C       479       18.915365   27.833764    5.819743   x
            x    C       480       26.982594   27.833715    5.838230   x
            x    C       481       35.059877   27.833831    5.821859   x
            x    C       482       59.262971   27.833421    5.842018   x
            x    C       483        2.769442   27.833671    5.827004   x
            x    C       484       10.836107   27.833548    5.843133   x
            x    C       485       21.604790   27.833717    5.839356   x
            x    C       486       29.671447   27.833793    5.822089   x
            x    C       487       37.748612   27.833661    5.840901   x
            x    C       488       53.887008   27.833448    5.835722   x
            x    C       489       61.951437   27.833714    5.823150   x
            x    C       490        5.458297   27.833442    5.844302   x
            x    C       491       13.525425   27.833775    5.821111   x
            x    C       492       43.124318   27.833421    5.835507   x
            x    C       493       14.869557   30.168493    5.822672   x
            x    C       494       22.942980   30.157634    5.816069   x
            x    C       495       31.015175   30.168971    5.824610   x
            x    C       496       63.295188   30.168959    5.825822   x
            x    C       497        6.796081   30.157498    5.819553   x
            x    C       498       17.571148   30.168515    5.821660   x
            x    C       499       25.644744   30.157727    5.813145   x
            x    C       500       33.716084   30.169063    5.823451   x
            x    C       501        1.425603   30.168891    5.827518   x
            x    C       502        9.497853   30.157467    5.819877   x
            x    C       503       39.085938   30.157909    5.816929   x
            x    C       504       55.224830   30.157792    5.813635   x
            x    C       505       57.925331   30.158004    5.816944   x
            x    C       506       41.786844   30.157969    5.814621   x
            x    C       507       13.531040   32.492121    5.844474   x
            x    C       508       10.841654   32.492858    5.825596   x
            x    C       509       18.909646   32.492107    5.843408   x
            x    C       510       26.988904   32.493221    5.818306   x
            x    C       511        2.762829   32.492971    5.846900   x
            x    C       512       21.599238   32.492910    5.822714   x
            x    C       513       29.677897   32.493228    5.842223   x
            x    C       514       61.957255   32.493508    5.843965   x
            x    C       515        5.451842   32.493090    5.824110   x
            x    C       516       35.053759   32.493452    5.842454   x
            x    C       517       59.268971   32.493742    5.822172   x
            x    C       518       37.742329   32.493500    5.819954   x
            x    C       519       43.130394   32.493343    5.817005   x
            x    C       520       14.868968   34.816719    5.828231   x
            x    C       521       22.943510   34.827727    5.826881   x
            x    C       522        9.497199   34.827839    5.829922   x
            x    C       523       17.571497   34.816496    5.826801   x
            x    C       524        6.795644   34.827982    5.828172   x
            x    C       525       31.015569   34.817677    5.822839   x
            x    C       526       63.294652   34.817778    5.822217   x
            x    C       527       25.645006   34.828146    5.822611   x
            x    C       528        1.425079   34.817642    5.824996   x
            x    C       529       39.086217   34.828828    5.821733   x
            x    C       530       33.716500   34.817672    5.820595   x
            x    C       531       57.925210   34.829134    5.821967   x
            x    C       532       55.224938   34.829149    5.818716   x
            x    C       533       41.786588   34.828893    5.819912   x
            x    C       534       18.915694   37.152351    5.841012   x
            x    C       535       13.524810   37.152379    5.841813   x
            x    C       536       10.835087   37.152365    5.855600   x
            x    C       537       21.605474   37.152256    5.854015   x
            x    C       538        2.768174   37.152824    5.827994   x
            x    C       539       26.983556   37.152290    5.842049   x
            x    C       540        5.457161   37.152464    5.846111   x
            x    C       541       29.672525   37.152945    5.825089   x
            x    C       542       61.950649   37.153422    5.823226   x
            x    C       543       35.060438   37.153286    5.822868   x
            x    C       544       59.262677   37.153604    5.843617   x
            x    C       545       37.748697   37.153252    5.842592   x
            x    C       546       43.124071   37.153309    5.839373   x
            x    C       547       51.199345   37.153866    5.818402   x
            x    C       548       53.887167   37.153723    5.838432   x
            x    C       549       45.812143   37.153726    5.815512   x
            xxxxxxxxxxxxxxxxxxxxxxxxxxxxxxxxxxxxxxxxxxxxxxxxxxxxxxxxxxxx
 

LBFGS: continuation file name is "graphite.continuation"
 LBFGS: Restarting previous  geometry optimization.
 avg_mass=  21271.333544933463
 Enthalpy contributions:
                  total energy=  -2.95171833E+003 Eh
        diagonal pressure term=   0.00000000E+000 Eh
    off-diagonal pressure term=   0.00000000E+000 Eh
 LBFGS: finished iteration   0  with enthalpy= -2.951718329122E+003 Eh
  
 +-----------+-----------------+-----------------+------------+-----+ <-- LBFGS
 | Parameter |      value      |    tolerance    |    units   | OK? | <-- LBFGS
 +-----------+-----------------+-----------------+------------+-----+ <-- LBFGS
 |  dE/ion   |   0.000000E+000 |   1.000000E-006 |         Eh | No  | <-- LBFGS
 |  |F|max   |   3.214257E-003 |   2.000000E-003 |    Eh/Bohr | No  | <-- LBFGS
 |  |dR|max  |   0.000000E+000 |   5.000000E-003 |       Bohr | No  | <-- LBFGS
 +-----------+-----------------+-----------------+------------+-----+ <-- LBFGS
  

================================================================================
 Starting LBFGS iteration    1 ...
================================================================================
 Writing xyz coordinates to file "graphite.xyz" ... done

 Writing continuation file "graphite.continuation" ...done
 Backing up NGWFs to file "graphite.tightbox_ngwfs.bfgs_back" ... done
 Backing up Hamiltonian to file "graphite.ham.bfgs_back" ... done
  
 +------------+-------------+-------------+-----------------+ <-- min LBFGS
 |    Step    |   lambda    |   F.delta   |    enthalpy     | <-- min LBFGS
 +------------+-------------+-------------+-----------------+ <-- min LBFGS
 |  previous  |    0.000000 |    0.000094 |    -2951.718329 | <-- min LBFGS
 +------------+-------------+-------------+-----------------+ <-- min LBFGS
  

--------------------------------------------------------------------------------
 LBFGS: starting iteration   1 with trial guess (lambda=    1.000000)
--------------------------------------------------------------------------------
 
                           -------------------------------
                                     Cell Contents
                           -------------------------------
 
            xxxxxxxxxxxxxxxxxxxxxxxxxxxxxxxxxxxxxxxxxxxxxxxxxxxxxxxxxxxx
            x  Element    Atom      Absolute co-ordinates of atoms     x
            x            Number        x           y           z       x
            x----------------------------------------------------------x
            x    Li        1       20.324793    6.767806   16.431587   x
            x    Li        2       15.787551    9.434231   16.453103   x
            x    Li        3       20.384840   12.084939   16.649758   x
            x    Li        4       15.644705    4.067375   16.717892   x
            x    Li        5       18.042342    8.112270   21.446689   x
            x    C         6       18.911199    9.195124   12.807593   x
            x    C         7       13.480627    9.206041   12.817369   x
            x    C         8       14.837431   11.559493   12.820937   x
            x    C         9       17.557997   11.558116   12.900755   x
            x    C        10       51.197856   27.833446   12.942655   x
            x    C        11       45.816416   27.833392   12.945726   x
            x    C        12       47.158334   30.167767   12.943715   x
            x    C        13       49.856356   30.167753   12.942247   x
            x    C        14       14.838895    6.853258   12.894795   x
            x    C        15       17.564996    6.861515   12.795193   x
            x    C        16       21.615047   13.892859   12.919261   x
            x    C        17       18.905442   13.891302   12.905703   x
            x    C        18       13.503302   13.882901   12.845174   x
            x    C        19       14.853670   16.207039   12.917466   x
            x    C        20       17.560879   16.213863   12.937327   x
            x    C        21       47.158162   25.498724   12.946321   x
            x    C        22       49.856472   25.498710   12.944720   x
            x    C        23       53.877390   32.491687   12.950190   x
            x    C        24       51.191369   32.491641   12.924121   x
            x    C        25       45.823116   32.491517   12.924391   x
            x    C        26       47.158190   34.815591   12.950741   x
            x    C        27       49.856417   34.815927   12.948972   x
            x    C        28       14.843070    2.176601   12.920928   x
            x    C        29       17.565148    2.181278   12.962815   x
            x    C        30       22.960504    2.178083   12.922946   x
            x    C        31        9.467829    2.187298   12.936131   x
            x    C        32       63.280320    2.206070   12.958281   x
            x    C        33        6.770439    2.190448   12.944587   x
            x    C        34       31.033653    2.203167   12.953831   x
            x    C        35        1.406342    2.204373   12.957011   x
            x    C        36       25.661227    2.184450   12.931677   x
            x    C        37       33.730570    2.205572   12.959695   x
            x    C        38       39.095720    2.195671   12.962054   x
            x    C        39       55.218573    2.196482   12.957757   x
            x    C        40       57.917464    2.196067   12.956700   x
            x    C        41       47.158635    2.207724   12.950676   x
            x    C        42       41.794581    2.196370   12.959629   x
            x    C        43       49.856209    2.207843   12.948492   x
            x    C        44       18.909374    4.513666   12.883545   x
            x    C        45       13.492784    4.521080   12.898281   x
            x    C        46       10.802381    4.523623   12.930368   x
            x    C        47       27.012013    4.528817   12.930607   x
            x    C        48        5.424579    4.528665   12.948445   x
            x    C        49       21.615602    4.512075   12.878244   x
            x    C        50       59.259547    4.532765   12.954909   x
            x    C        51        2.741794    4.530761   12.933995   x
            x    C        52       35.068344    4.530844   12.938543   x
            x    C        53       61.944244    4.531791   12.934340   x
            x    C        54       29.696698    4.529938   12.922189   x
            x    C        55       43.137419    4.532717   12.958095   x
            x    C        56       51.190862    4.532924   12.931383   x
            x    C        57       37.753001    4.532057   12.961883   x
            x    C        58       53.875934    4.532975   12.957112   x
            x    C        59       45.823270    4.532821   12.932817   x
            x    C        60       22.972410    6.863766   12.886954   x
            x    C        61       63.279610    6.858130   12.961066   x
            x    C        62        6.768075    6.868449   12.936947   x
            x    C        63       31.035774    6.856917   12.950355   x
            x    C        64       39.096455    6.868640   12.958490   x
            x    C        65       57.916389    6.869007   12.952945   x
            x    C        66        1.404983    6.857991   12.960243   x
            x    C        67        9.459505    6.867577   12.911062   x
            x    C        68       25.671540    6.866279   12.923142   x
            x    C        69       33.731598    6.857293   12.959581   x
            x    C        70       55.218164    6.869281   12.955762   x
            x    C        71       47.158982    6.857802   12.960989   x
            x    C        72       41.794195    6.869031   12.957973   x
            x    C        73       49.856325    6.858062   12.958604   x
            x    C        74       51.197368    9.194320   12.957141   x
            x    C        75       59.252768    9.194513   12.930612   x
            x    C        76        2.748382    9.196144   12.956679   x
            x    C        77       27.009774    9.198676   12.925658   x
            x    C        78       35.075748    9.195019   12.959289   x
            x    C        79       43.130915    9.194237   12.937212   x
            x    C        80       53.882158    9.194403   12.933803   x
            x    C        81       61.937399    9.195410   12.955953   x
            x    C        82        5.430615    9.197080   12.920474   x
            x    C        83       21.621687    9.203624   12.901680   x
            x    C        84       29.689979    9.196645   12.949420   x
            x    C        85       37.759640    9.194394   12.936301   x
            x    C        86       45.816743    9.194224   12.961456   x
            x    C        87       10.795145    9.200624   12.842471   x
            x    C        88       47.158986   11.530318   12.959761   x
            x    C        89       55.218235   11.519515   12.959432   x
            x    C        90       63.280692   11.532355   12.955591   x
            x    C        91       31.035578   11.535340   12.947541   x
            x    C        92       39.095948   11.520278   12.961188   x
            x    C        93       49.856244   11.530244   12.957420   x
            x    C        94       57.916767   11.520109   12.955613   x
            x    C        95        1.406312   11.533742   12.955443   x
            x    C        96       33.731425   11.532914   12.954981   x
            x    C        97       41.793992   11.519349   12.961417   x
            x    C        98        6.770337   11.524507   12.932705   x
            x    C        99       22.969652   11.535441   12.961310   x
            x    C       100       25.672376   11.531366   12.961584   x
            x    C       101        9.466333   11.526786   12.889148   x
            x    C       102       45.822958   13.855171   12.938164   x
            x    C       103       43.136630   13.855874   12.960187   x
            x    C       104       51.191070   13.855240   12.936684   x
            x    C       105       59.259681   13.856464   12.953775   x
            x    C       106       35.068260   13.858710   12.937117   x
            x    C       107       53.876457   13.855913   12.959295   x
            x    C       108       61.945329   13.857549   12.932861   x
            x    C       109       29.696406   13.862208   12.921859   x
            x    C       110       37.753123   13.857135   12.960795   x
            x    C       111        2.744790   13.859290   12.934678   x
            x    C       112       27.011576   13.867203   12.946479   x
            x    C       113        5.428807   13.862518   12.948325   x
            x    C       114       10.818165   13.872629   12.886545   x
            x    C       115       47.158286   16.180106   12.963296   x
            x    C       116       55.219054   16.191660   12.957061   x
            x    C       117       41.793582   16.191631   12.958824   x
            x    C       118       49.856636   16.180107   12.961057   x
            x    C       119       39.095269   16.192831   12.959042   x
            x    C       120       63.282577   16.181656   12.961403   x
            x    C       121       31.033050   16.187872   12.951982   x
            x    C       122       57.917506   16.192187   12.954038   x
            x    C       123       33.730811   16.183770   12.960736   x
            x    C       124        6.775472   16.199638   12.946985   x
            x    C       125        1.409637   16.184209   12.961289   x
            x    C       126       25.664564   16.212117   12.933516   x
            x    C       127       22.962112   16.222799   12.928977   x
            x    C       128        9.476362   16.203973   12.928352   x
            x    C       129       51.197748   18.515923   12.955730   x
            x    C       130       45.816047   18.515907   12.959361   x
            x    C       131       43.129672   18.516202   12.936702   x
            x    C       132       53.883589   18.516189   12.934097   x
            x    C       133       35.073270   18.519414   12.960869   x
            x    C       134       59.254299   18.516643   12.933764   x
            x    C       135       37.758708   18.517037   12.937801   x
            x    C       136       61.940538   18.517211   12.958452   x
            x    C       137       29.688664   18.524624   12.947562   x
            x    C       138        2.753792   18.518712   12.958465   x
            x    C       139       26.999310   18.529190   12.915514   x
            x    C       140        5.440206   18.521749   12.934793   x
            x    C       141       10.818669   18.529660   12.920890   x
            x    C       142       18.915294   18.538959   12.934850   x
            x    C       143       21.612873   18.541554   12.907250   x
            x    C       144       13.510102   18.532477   12.937282   x
            x    C       145       47.158106   20.851435   12.951825   x
            x    C       146       49.856475   20.851150   12.950070   x
            x    C       147       55.219176   20.840241   12.958930   x
            x    C       148       41.793876   20.840452   12.959761   x
            x    C       149       31.030527   20.857038   12.956395   x
            x    C       150       39.094975   20.840793   12.961732   x
            x    C       151       63.284051   20.851540   12.958064   x
            x    C       152       33.729820   20.853891   12.958864   x
            x    C       153       57.918153   20.840701   12.957835   x
            x    C       154        1.412036   20.852900   12.957354   x
            x    C       155        6.780097   20.845380   12.962152   x
            x    C       156       22.952954   20.855559   12.945109   x
            x    C       157       25.657353   20.853926   12.947675   x
            x    C       158       14.862023   20.866846   12.947435   x
            x    C       159        9.481830   20.848144   12.962358   x
            x    C       160       17.566039   20.868167   12.941821   x
            x    C       161       51.191601   23.175114   12.924983   x
            x    C       162       45.822621   23.175164   12.925361   x
            x    C       163       43.136336   23.175402   12.952571   x
            x    C       164       59.260539   23.175600   12.955212   x
            x    C       165       37.752417   23.175685   12.958938   x
            x    C       166       53.877524   23.175438   12.953044   x
            x    C       167       27.001501   23.183589   12.958739   x
            x    C       168       35.066261   23.177153   12.937134   x
            x    C       169        2.750257   23.175459   12.936085   x
            x    C       170       29.690729   23.180786   12.936836   x
            x    C       171       61.946986   23.175267   12.935497   x
            x    C       172       10.829844   23.181865   12.962152   x
            x    C       173       18.911900   23.187099   12.929033   x
            x    C       174        5.437405   23.177463   12.959715   x
            x    C       175       21.602427   23.187978   12.951698   x
            x    C       176       13.520398   23.183249   12.936631   x
            x    C       177       55.219611   25.510003   12.950618   x
            x    C       178       31.027304   25.501853   12.961719   x
            x    C       179       39.095671   25.510158   12.954549   x
            x    C       180       63.284292   25.498730   12.962657   x
            x    C       181        6.783140   25.510083   12.958166   x
            x    C       182       25.653548   25.515717   12.958852   x
            x    C       183       33.727761   25.500286   12.961264   x
            x    C       184       41.794108   25.509970   12.951345   x
            x    C       185       57.918011   25.510042   12.951643   x
            x    C       186        1.413259   25.498636   12.961136   x
            x    C       187       22.950621   25.515707   12.960820   x
[...]
 C   301 -- C   309       -0.07     -0.00      5.39528
 C   471 -- C   495       -0.07      0.00      5.39529
 C   476 -- C   498       -0.07     -0.00      5.39531
 C   504 -- C   531       -0.07      0.00      5.39533
 C   478 -- C   493       -0.07      0.00      5.39533
 C   322 -- C   530       -0.07     -0.00      5.39535
 C   474 -- C   496       -0.07      0.00      5.39538
 C   497 -- C   522       -0.07     -0.00      5.39544
 C   385 -- C   407       -0.07      0.00      5.39546
 C   436 -- C   467       -0.07      0.00      5.39547
 C   435 -- C   473       -0.07     -0.00      5.39547
 C   443 -- C   477       -0.07     -0.00      5.39548
 C   377 -- C   410       -0.07      0.00      5.39549
 C   505 -- C   532       -0.07      0.00      5.39550
 C   503 -- C   533       -0.07      0.00      5.39554
 C    38 -- C    72       -0.07     -0.00      5.39555
 C   468 -- C   501       -0.07     -0.00      5.39558
 C   354 -- C   378       -0.07      0.00      5.39562
 C    89 -- C   122       -0.07     -0.00      5.39562
 C   494 -- C   527       -0.07     -0.00      5.39565
 C    40 -- C    70       -0.07     -0.00      5.39567
 C   445 -- C   475       -0.07     -0.00      5.39567
 C   351 -- C   384       -0.07     -0.00      5.39567
 C   409 -- C   440       -0.07     -0.00      5.39570
 C   502 -- C   524       -0.07      0.00      5.39573
 C   349 -- C   383       -0.07     -0.00      5.39574
 C   308 -- C   446       -0.07     -0.00      5.39576
 C   325 -- C   525       -0.07     -0.00      5.39579
 C   411 -- C   437       -0.07      0.00      5.39582
 C    99 -- C   126       -0.07     -0.00      5.39582
 C   408 -- C   442       -0.07     -0.00      5.39584
 C   320 -- C   528       -0.07      0.00      5.39587
 C    97 -- C   119       -0.07      0.00      5.39593
 C   357 -- C   379       -0.07      0.00      5.39600
 C   120 -- C   154       -0.07      0.00      5.39605
 C    63 -- C    96       -0.07     -0.00      5.39636
 C   317 -- C   520       -0.07     -0.00      5.39637
 C   389 -- C   412       -0.07      0.00      5.39637
 C   307 -- C   448       -0.07     -0.00      5.39650
 C   387 -- C   414       -0.07     -0.00      5.39657
 C    37 -- C   237       -0.07     -0.00      5.39667
 C    61 -- C    95       -0.07      0.00      5.39667
 C   316 -- C   523       -0.07      0.00      5.39670
 C   321 -- C   355       -0.07     -0.00      5.39684
 C   386 -- C   416       -0.07      0.00      5.39690
 C   319 -- C   350       -0.07      0.00      5.39704
 C   222 -- C   224       -0.07      0.00      5.39705
 C   214 -- C   236       -0.07      0.00      5.39715
 C    32 -- C   240       -0.07      0.00      5.39722
 C   388 -- C   415       -0.07      0.00      5.39725
 C   324 -- C   348       -0.07      0.00      5.39727
 C   318 -- C   356       -0.07     -0.00      5.39763
 C   123 -- C   149       -0.07      0.00      5.39766
 C   167 -- C   175       -0.07      0.00      5.39777
 C    69 -- C    91       -0.07      0.00      5.39789
 C   297 -- C   302       -0.07     -0.00      5.39887
 C    20 -- C   127       -0.08     -0.00      5.39904
 C   296 -- C   303       -0.07      0.00      5.39948
 C    46 -- C   247       -0.08      0.00      5.39951
 C   191 -- C   203       -0.07      0.00      5.40006
 C    45 -- C    87       -0.07      0.00      5.40097
 C    17 -- C    18       -0.08      0.00      5.40104
 C    31 -- C    62       -0.07      0.00      5.40291
 C   142 -- C   144       -0.07      0.00      5.40297
 C    98 -- C   128       -0.07     -0.00      5.40462
 C    15 -- C    60       -0.06     -0.00      5.40653
 C     6 -- C    49       -0.06      0.00      5.40703
 C    18 -- C    87       -0.08     -0.00      5.40765
 C    14 -- C    29       -0.07      0.00      5.40868
 C     9 -- C    99       -0.07     -0.00      5.41028
 C    30 -- C    68       -0.07      0.00      5.41447
 C    44 -- C    45       -0.06      0.00      5.41501
 C    44 -- C    83       -0.06     -0.00      5.41590
 C   246 -- C   247       -0.07     -0.00      5.41657
 C    17 -- C    83       -0.06      0.00      5.41676
 C    15 -- C    28       -0.07     -0.00      5.41701
 C   100 -- C   127       -0.07      0.00      5.41705
 C     6 -- C    16       -0.07     -0.00      5.41876
 C     6 -- C     7       -0.05     -0.00      5.42976
 C     9 -- C    14       -0.05     -0.00      5.43151
 C     8 -- C    15       -0.05     -0.00      5.43201
 Li    2 -- Li    5        0.20     -0.00      5.61287
 Li    1 -- Li    5        0.20     -0.00      5.65267
=============================================================


============== Orbital energy and occupancy information for spin 1 =============

      Total number of orbitals:    2233
        Occupancy sum (kernel):    1073.898876080
   Occupancy sum (eigenvalues):    1073.898876080
                 HOMO-LUMO gap:      -0.000021509 Eh
                 Mid-gap level:      -0.162963932 Eh

                        Orbital | Energy (Eh) | Occupancy
                            1    -1.939212590   1.0000000
                        .......   ...........   .........
                         1065    -0.181122976   0.9831597
                         1066    -0.180918275   0.9822289
                         1067    -0.180685362   0.9810084
                         1068    -0.180229997   0.9785785
                         1069    -0.178471786   0.9660421
                         1070    -0.178397412   0.9653761
                         1071    -0.174510470   0.9064555
                         1072    -0.174460420   0.9053157
                         1073    -0.163851322   0.3459023
                         1074    -0.162974686   0.2938544
                        ....... -- gap at 0K -- .........
                         1075    -0.162953177   0.2939040
                         1076    -0.162810353   0.2859648
                         1077    -0.160952357   0.1945072
                         1078    -0.160782307   0.1875943
                         1079    -0.157926222   0.0957113
                         1080    -0.157641812   0.0890729
                         1081    -0.157124653   0.0781251
                         1082    -0.156790735   0.0723195
                         1083    -0.156400539   0.0653422
                         1084    -0.154950908   0.0449676
                        .......   ...........   .........
                         2233     0.714778058   0.0000000

================================================================================

============== Orbital energy and occupancy information for spin 2 =============

      Total number of orbitals:    2233
        Occupancy sum (kernel):    1073.898876070
   Occupancy sum (eigenvalues):    1073.898876070
                 HOMO-LUMO gap:      -0.000021509 Eh
                 Mid-gap level:      -0.162963932 Eh

                        Orbital | Energy (Eh) | Occupancy
                            1    -1.939212590   1.0000000
                        .......   ...........   .........
                         1065    -0.181122976   0.9831597
                         1066    -0.180918275   0.9822289
                         1067    -0.180685362   0.9810084
                         1068    -0.180229997   0.9785785
                         1069    -0.178471786   0.9660421
                         1070    -0.178397412   0.9653761
                         1071    -0.174510470   0.9064555
                         1072    -0.174460420   0.9053157
                         1073    -0.163851322   0.3459023
                         1074    -0.162974686   0.2938544
                        ....... -- gap at 0K -- .........
                         1075    -0.162953177   0.2939040
                         1076    -0.162810353   0.2859648
                         1077    -0.160952357   0.1945072
                         1078    -0.160782307   0.1875943
                         1079    -0.157926222   0.0957113
                         1080    -0.157641811   0.0890729
                         1081    -0.157124653   0.0781251
                         1082    -0.156790735   0.0723195
                         1083    -0.156400539   0.0653422
                         1084    -0.154950908   0.0449676
                        .......   ...........   .........
                         2233     0.714778058   0.0000000

================================================================================

===================== Writing canonical molecular orbitals =====================
    Spin 1
| Orbital  Energy (eV)  Norm     |
| HOMO-5   -4.85646442  1.000000 | 
| HOMO-4   -4.85444059  1.000000 | 
| HOMO-3   -4.74867152  1.000000 | 
| HOMO-2   -4.74730959  1.000000 | 
| HOMO-1   -4.45862135  1.000000 | 
| HOMO     -4.43476687  1.000000 | 
| LUMO     -4.43418158  1.000000 | 
| LUMO+1   -4.43029514  1.000000 | 
| LUMO+2   -4.37973648  1.000000 | 
| LUMO+3   -4.37510920  1.000000 | 
| LUMO+4   -4.29739118  1.000000 | 
| LUMO+5   -4.28965196  1.000000 | 
================================================================================

===================== Writing canonical molecular orbitals =====================
    Spin 2
| Orbital  Energy (eV)  Norm     |
| HOMO-5   -4.85646442  1.000000 | 
| HOMO-4   -4.85444059  1.000000 | 
| HOMO-3   -4.74867152  1.000000 | 
| HOMO-2   -4.74730959  1.000000 | 
| HOMO-1   -4.45862135  1.000000 | 
| HOMO     -4.43476687  1.000000 | 
| LUMO     -4.43418158  1.000000 | 
| LUMO+1   -4.43029514  1.000000 | 
| LUMO+2   -4.37973648  1.000000 | 
| LUMO+3   -4.37510920  1.000000 | 
| LUMO+4   -4.29739118  1.000000 | 
| LUMO+5   -4.28965196  1.000000 | 
================================================================================
 
=============== Density of States (DOS) calculation for UP spin ================
Writing "graphite_UP_DOS.txt" ... done
================================================================================
 
============== Density of States (DOS) calculation for DOWN spin ===============
Writing "graphite_DN_DOS.txt" ... done
================================================================================
 
Writing bands to file "graphite.val_bands" ... done

IS: Calculating electrolyte contribution to the atomic forces ...
================================================================================
 
***********************************************************
********** Summary of Forces (values in Eh/a) *************
*                                                         *
* ---------------------- Minimum ------------------------ *
* Atom:       132, |F|min =    0.00001405                 *
* Components:     Fx|min       Fy|min       Fz|min        *
*               0.00001384   0.00000017   0.00000236      *
*                                                         *
* ---------------------- Maximum ------------------------ *
* Atom:         4, |F|max =    0.00122681                 *
* Components:     Fx|max       Fy|max       Fz|max        *
*               0.00121975  -0.00004187  -0.00012455      *
*                                                         *
* ---------------- Root Mean Square Force --------------- *
*                  |F|rms =    0.00022296                 *
* Components:     Fx|rms       Fy|rms       Fz|rms        *
*               0.00012872   0.00013202   0.00012535      *
***********************************************************
 

                                                      hartree           kcal/mol
IS: NB: Energy of pure electrolyte:         -0.08203642321478         -51.478632

------------------------------ TIMING INFORMATION ------------------------------
AVERAGE TIME:    8195.894s on    128 proc(s)                                    
TOTAL TIME:      8195.900s on    128 proc(s)                                    
================= AVERAGE TIMINGS FROM ALL PROCS (CUMULATIVE) ==================
|| TAG                                    #calls    cpu time   %total  Gflops ||
|| linalg_invert_sym_matrix             :     4        0.00s   0.000%  ------ || (1 procs only)
|| onetep.F90 main loop imbalance       :     1        0.00s   0.000%  ------ ||
|| density_fftbox_interp_mult_imbal     : 10320        0.00s   0.000%  ------ ||
|| sparse_set_to_garbage                :    84        0.01s   0.000%  ------ ||
|| onetep.F90 final imbalance           :     1        0.02s   0.000%  ------ ||
|| vdwcorrection_calculate_forces       :     7        0.03s   0.000%  ------ ||
|| ewald_calculate_forces_realspace     :     7        0.03s   0.000%  ------ ||
|| basis_extract_function_from_box      :   819        0.07s   0.001%  ------ ||
|| vdwcorrection_calculate_energy       :     7        0.07s   0.001%  ------ ||
|| sparse_spam3toblacs_real_fast_imbal  :   943        0.10s   0.001%  ------ ||
|| pseudopotentials_core_density        :     7        0.13s   0.002%  ------ ||
|| pseudopotentials_local_on_grid       :     7        0.14s   0.002%  ------ ||
|| pseudopotentials_nonlocal_mat        :    14        0.19s   0.002%  ------ ||
|| parallel_prepare_fd_halos_alloc      : 35361        0.19s   0.002%  ------ ||
|| sparse_blacstospam3_real_fast_imbal  :   930        0.30s   0.004%  ------ ||
|| parallel_prepare_fd_halos_request    : 35361        0.33s   0.004%  ------ ||
|| restart_hamiltonian_read             :     7        0.36s   0.004%  ------ ||
|| restart_hamiltonian_write            :    10        0.48s   0.006%  ------ ||
|| sparse_spam3toblacs_real_fast_B2     : 120.7k       0.75s   0.009%  ------ ||
|| pseudo_make_structure_factor         :     7        0.90s   0.011%  ------ ||
|| smeared_ion_generate_potential_PBC   :     7        1.42s   0.017%  ------ ||
|| parallel_prepare_fd_halos_satisfy    : 35361        1.66s   0.020%  ------ ||
|| ngwf_gradient_coeffs                 :    10        1.77s   0.022%  ------ ||
|| sparse_init                          :     7        2.31s   0.028%  ------ ||
|| energy_and_force_init_cell           :     1        2.37s   0.029%  ------ ||
|| restart_kernel_write                 :    17        2.54s   0.031%  ------ ||
|| pseudo_local_calculate_forces        :     7        3.51s   0.043%  ------ ||
|| projectors_func_ovlp_box_spam3       :    14        4.14s   0.051%  ------ ||
|| sparse_embed_hotelling_invert_embed  :    14        4.14s   0.051%  ------ ||
|| eigenstates_calculate                :     1        4.24s   0.052%  ------ ||
|| ewald_calculate_energy               :     7        4.34s   0.053%  ------ ||
|| integrals_grad_spam3                 :     7        4.44s   0.054%  ------ ||
|| nonsc_forces_ngwfs_calc              :     7        4.45s   0.054%  ------ ||
|| density_init_guess_real              :     7        4.63s   0.057%  ------ ||
|| pseudo_nlcc_calculate_forces         :     7        5.35s   0.065%  ------ ||
|| fourier_filter_cell                  :   208        5.63s   0.069% 206.007 ||
|| projectors_func_grad_ovlp_box_spam3  :    21        6.56s   0.080%  ------ ||
|| sparse_trace                         :  3560        6.84s   0.083%  ------ ||
|| projectors_init_fftbox_recip         :    75        7.27s   0.089%  ------ ||
|| pseudo_nl_calculate_forces           :     7        7.39s   0.090%  ------ ||
|| function_ops_brappd_ketppd_spam3     :    21        8.08s   0.099%  ------ ||
|| fourier_apply_box_pair               :   884        8.22s   0.100%  1.737k ||
|| restart_ngwfs_tightbox_input         :     7       10.20s   0.124%  ------ ||
|| basis_copy_function_to_box           : 13188       11.71s   0.143%  ------ ||
|| boltzmann_init_steric_pot            :     7       12.69s   0.155%  ------ ||
|| ewald_calculate_forces_recipspace    :     7       13.69s   0.167%  ------ ||
|| ewald_calculate_forces               :     7       13.76s   0.168%  ------ ||
|| integrals_kinetic_spam3              :    14       14.18s   0.173%  ------ ||
|| parallel_prepare_fd_halos_clear      : 35361       14.27s   0.174%  ------ ||
|| parallel_prepare_fd_halos_comms_imbal: 35361       14.36s   0.175%  ------ ||
|| parallel_prepare_fd_halos_comms_wait : 35361       24.11s   0.294%  ------ ||
|| fourier_interpolate_cell             :   516       24.24s   0.296% 118.611 ||
|| sparse_product                       :  2126       26.77s   0.327%  ------ ||
|| properties_calculate                 :     1       28.55s   0.348%  ------ ||
|| projectors_gradient_batch            :    40       29.51s   0.360%  ------ ||
|| fourier_apply_cell_backward          :  2183       35.19s   0.429% 174.477 ||
|| sparse_spam3toblacs_real_fast_B1     : 120.7k      37.26s   0.455%  ------ ||
|| sparse_spam3toblacs_real_fast        :   943       39.71s   0.484%  ------ ||
|| basis_dot_function_with_box          : 2.302M      42.44s   0.518%  ------ ||
|| cell_grid_extract_box_real           :  4160       50.90s   0.621%  ------ ||
|| restart_ngwfs_tightbox_output        :     7       55.07s   0.672%  ------ ||
|| parallel_prepare_fd_halos            : 35361       55.12s   0.673%  ------ ||
|| sparse_blacstospam3_real_fast        :   930       65.74s   0.802%  ------ ||
|| xc_energy_potential                  :   265       78.73s   0.961%  ------ ||
|| cell_grid_deposit_box_real           : 10870      117.63s   1.435%  ------ ||
|| ngwf_gradient_build_batch            :    40      125.72s   1.534%  ------ ||
|| basis_add_function_to_box            : 6.949M     132.50s   1.617%  ------ ||
|| dense_eigensolve                     :   460      146.99s   1.793%  ------ ||
|| fourier_apply_cell_forward           :  2155      150.52s   1.836%  40.263 ||
|| finite_difference_derivative         : 35361      173.75s   2.120%  ------ ||
|| edft_diag_ngwf_ham                   :   458      184.80s   2.255%  ------ ||
|| integrals_locpot_mat_els_batch       :   376      193.43s   2.360%  ------ ||
|| ngwf_gradient_batch                  :    40      205.49s   2.507%  ------ ||
|| ngwf_gradient_lnv                    :    10      213.26s   2.602%  ------ ||
|| hamiltonian_energy_components        :     7      237.64s   2.899%  ------ ||
|| edft_apply_smearing_operator         :   229      278.77s   3.401%  ------ ||
|| implicit_solvent_boltzmann_forces    :     7      344.34s   4.201%  ------ ||
|| density_batch_row_sums               :  1032      367.63s   4.486%  ------ ||
|| density_fftbox_deposit_to_cell       : 10320      463.08s   5.650%  ------ ||
|| smeared_ion_force_correction         :    14      674.82s   8.234%  ------ ||
|| potential_apply_to_ngwf_batch        :   376      691.85s   8.441%  ------ ||
|| implicit_solvent_soft_sphere_forces  :     7      714.04s   8.712%  ------ ||
|| integrals_locpot_dbl_grid            :   188      886.50s  10.816%  ------ ||
|| dl_mg_solver_calls                   :   258      954.10s  11.641%  ------ ||
|| multigrid_calculate_hartree          :   258      982.21s  11.984%  ------ ||
|| fourier_apply_box                    : 27799      994.80s  12.138%  2.182k ||
|| density_fftbox_interpolate_multiply  : 10320     1184.57s  14.453%  ------ ||
|| forces_calculate                     :     7     1837.63s  22.421%  ------ ||
|| density_batch_interp_deposit         :  1032     2155.95s  26.305%  ------ ||
|| density_on_dbl_grid                  :   516     2610.27s  31.849%  ------ ||
|| hamiltonian_lhxc_calculate           :   244     3599.04s  43.913%  ------ ||
|| edft_calculate                       :    10     4503.83s  54.952%  ------ ||
|| ngwf_cg_optimise                     :     7     5099.06s  62.215%  ------ ||
|| energy_and_forces                    :     7     8149.22s  99.431%  ------ ||
|| total_time                           :     1     8195.89s 100.000%  ------ ||
================================================================================
Overhead of generating timer report: 
- 0 ms averaging over threads,
- 38 ms ensuring consistency across MPI ranks,
- 22 ms printing in order.

Job completed: 31-10-2023 00:05 (+0000)

