==================================================================================
It's Mon 23 Oct 2023 09:44:28 AM BST.
*** Starting onetep_launcher (node nid002087, PIDs 169110 169111 169112 169113 169114 169115 169116 169117 169118 169119 169120 169121 169122 169123 169124 169125)...
    - ONETEP arguments: graphite.dat
    - Current directory: /mnt/lustre/a2fs-work3/work/e89/e89/arihant/linuc/n/new/12/0.0
    - Launcher executable directory: /mnt/lustre/a2fs-work3/work/e89/e89/arihant/onetep/utils
    - (-e) ONETEP executable specified through command-line: /work/e89/e89/arihant/onetep/bin/onetep.archer2_2023_cray
      ... trying /work/e89/e89/arihant/onetep/bin/onetep.archer2_2023_cray
          -> looks OK
*** Setting up environment...
    - (-s) Process stack size: unlimited
    - (-t) OMP_NUM_THREADS: 8
    - (-o) OMP_STACKSIZE: 64M
    - (-c) Maximum core file size: 2048000
    - (-d) decfort_dump_flag: n
    - (-m) I_MPI_OFA_TRANSLATION_CACHE: 0
    - (-m) I_MPI_DAPL_TRANSLATION_CACHE: 0
    - (-m) I_MPI_DAPL_UD_TRANSLATION_CACHE: 0
*** Starting ONETEP...
    - /work/e89/e89/arihant/onetep/bin/onetep.archer2_2023_cray graphite.dat
=================================================================================
_________________________________________________________________________________
 +---------------------------------------------------------------+
 |                                                               |
 |        ####### #     # ####### ####### ####### ######         |
 |        #     # ##    # #          #    #       #     #        |
 |        #     # # #   # #          #    #       #     #        |
 |        #     # #  #  # #####      #    #####   ######         |
 |        #     # #   # # #          #    #       #              |
 |        #     # #    ## #          #    #       #              |
 |        ####### #     # #######    #    ####### #              |
 |                                                               |
 |        Linear-Scaling Ab Initio Total Energy Program          |
 |                                                               |
 |          Release for academic collaborators of ODG            |
 |                                             Version 6.1.59    |
 | Remote: https://github.com/onetep-devel/onetep.git            |
 | Local branch: master                                          |
 | Commit ID: 3df6b8ca88fa1735659d3248d54c94b50edec21b           |
 | Date: Thu Oct 5 13:49:52 2023 +0200                           |
 | Working tree clean                                            |
 |                                                               |
 +---------------------------------------------------------------+
 |                                                               |
 |  Authors:                                                     |
 |  Jacek Dziedzic, Peter D. Haynes, Nicholas D. M. Hine,        |
 |  Arash A. Mostofi, Mike C. Payne and Chris-Kriton Skylaris    |
 |                                                               |
 |  Contributors:                                                |
 |  J. Aarons, L. Andrinopoulos, P. W. Avraam, R. A. Bell,       |
 |  A. Bhandari, G. A. Bramley, R. J. Charlton, S. J. Clark,     |
 |  R. J. Clements, G. C. Constantinescu, F. Corsetti,           |
 |  N. Corsini, O. Dieguez, S. M. M. Dubois, K. K. B. Duff,      |
 |  J. M. Escartin, M. Escobar Azor, A. Greco,                   |
 |  H. Helal, Q. O. Hill, L. P. Lee, J.-H. Li,                   |
 |  E. B. Linscott, G. Moynihan, D. D. O`Regan,                  |
 |  O. K. Okan, M. J. S. Phipps, C. J. Pickard,                  |
 |  J. C. A. Prentice, M. I. J. Probert, L. E. Ratcliff,         |
 |  M. Robinson, A. Ruiz Serrano, M. dos Santos Dias,            |
 |  J. S. Spencer, E. W. Tait, G. Teobaldi, D. Turban,           |
 |  V. Vitale, K. A. Wilkinson, C. Weber, J. C. Womack,          |
 |  N. Yeung and T. J. Zuehlsdorff                               |
 |                                                               |
 |                                   Copyright (c) 2004-2023     |
 |                                                               |
 |  Please cite:                                                 |
 |  "The ONETEP linear-scaling density functional theory program"|
 |   J. Chem. Phys. 152(17) 174111 (2020)                        |
 |                                                               |
 |          in all publications arising from your use of ONETEP. |
 |                                                               |
 +---------------------------------------------------------------+
 |                                                               |
 |   ONETEP is based on developments described in the following  |
 |   publications:                                               |
 |                                                               |
 |  "Nonorthogonal generalized Wannier function pseudopotential  |
 |   plane-wave method".                                         |
 |   C.-K. Skylaris, A. A. Mostofi, P. D. Haynes, O. Dieguez,    |
 |   M. C. Payne.                                                |
 |   Phys. Rev. B 66 035119 (2002).                              |
 |                                                               |
 |  "Preconditioned iterative minimization for linear-scaling    |
 |   electronic structure calculations".                         |
 |   A. A. Mostofi, P. D. Haynes, C.-K. Skylaris, M. C. Payne.   |
 |   J. Chem. Phys. 119(17), pp.8842-8848 (2003).                |
 |                                                               |
 |  "Total-energy calculations on a real space grid with         |
 |   localized functions and a plane-wave basis".                |
 |   A. A. Mostofi, C.-K. Skylaris, P. D. Haynes, M. C. Payne.   |
 |   Comput. Phys. Commun. 147, pp.788-802 (2002).               |
 |                                                               |
 |  "Accurate kinetic energy evaluation in electronic structure  |
 |   calculations with localized functions on real space grids"  |
 |   C.-K. Skylaris, A. A. Mostofi, P. D. Haynes, C. J. Pickard, |
 |   M. C. Payne.                                                |
 |   Comput. Phys. Commun. 140, pp.315-322 (2001).               |
 |                                                               |
 |  "Accurate ionic forces and geometry optimization in linear-  |
 |   scaling density-functional theory with local orbitals"      |
 |   N. D. M. Hine, M. Robinson, P. D. Haynes, C.-K. Skylaris,   |
 |   M. C. Payne, and A. A. Mostofi.                             |
 |   Phys. Rev. B 83 195102 (2011).                              |
 |                                                               |
 +---------------------------------------------------------------+

Job started: 23-10-2023 09:44 (+0100)
 
Reading parameters from file "graphite.dat" ...... done

If your calculation crashes here, before "Checking processes and threads..."
is displayed, then your stack size is insufficient.
If so, use "ulimit -s unlimited" at runtime.
You can disable this check with "check_stack_size F".

Checking processes and threads...
   Determining the default number of threads...
      No default threads set at compilation time: defaulting to 1.
      OpenMP library call suggests 8 threads.
      Hybrid MPI-OpenMP compilation detected.
      Number of MPI processes > 1.
      OMP_NUM_THREADS environment variable present and
      its value matches the one obtained from the OpenMP library call.
      Using this value as default.
      Default threads: 8
      Default applies to threads_max and threads_num_fftboxes.
      Settings in the input file override this default.
   ... done

   Running with 128 MPI processes.
   There are 16 MPI processes running on the same node as the root process.
   Each MPI process is using: 
               1 threads for simulation cell FFTs.
               1 threads for parallel FFT box operations.
               8 threads for loops over batched FFT box operations.
               8 threads in other parallel regions.
   MPI Interface: S1 (use mpi_f08) (-DMPI -DUSE_MPI_F08).
   MPI_ASYNC_PROTECTS_NONBLOCKING: Yes. MPI_SUBARRAYS_SUPPORTED: Yes.
   GPU Interface: None.
... done

Basic input checks...
Resetting ngwf_cg_rotate to TRUE for EDFT calculations
... done

Reading geometry and species blocks from file "graphite.dat" ...
  Reading POSITIONS geometry from str.xyz

  <species_atomic_set> block not found: NGWF initialisation set to SOLVE
IS: Dielectric excluded regions:
    - NONE.
IS: Assigning soft sphere radii for soft sphere solvation...
IS: No soft sphere radii specified. Default Alvarez radii used for all atoms.

----------- SOFT SPHERE RADII -----------
Li  5.333
C   4.442
-----------------------------------------

    
  Number of PPD points along a3 set to 1.  This is 
  the default value, it may have been provided also in the input file.
... done


--------------------------------------------------------------------------------
---------------------------------- INPUT FILE ----------------------------------
--------------------------------------------------------------------------------

task geometryoptimization                                                       
geom_method LBFGS                                                               
geom_continuation T                                                             
write_xyz T                                                                     
edft_grand_canonical T                                                          
edft_reference_potential  -4.42 eV                                              
edft_electrode_potential 0.0 V                                                  
edft_nelec_thres 0.000001                                                       
is_dielectric_function soft_sphere                                              
is_implicit_solvent T                                                           
is_smeared_ion_rep T                                                            
is_include_apolar T                                                             
is_solvation_properties F                                                       
is_pbe                    full                                                  
is_pbe_temperature        298.15                                                
is_pbe_bc_debye_screening T                                                     
is_pbe_neutralisation_scheme counterions_auto                                   
is_pbe_energy_tolerance 1E+50                                                   
is_bc_coarseness 5                                                              
is_bc_threshold 1E-9                                                            
is_bulk_permittivity 90.7                                                       
is_solvent_surf_tension 0.0506 N/m                                              
%block sol_ions                                                                 
Li  +1 1.0                                                                      
PF6 -1 1.0                                                                      
%endblock sol_ions                                                              
is_steric_pot_type M                                                            
is_hc_steric_dens_isovalue  0.001                                               
is_hc_steric_smearing         0.4 bohr                                          
is_steric_write T                                                               
%block species_solvent_radius                                                   
Li 3.0                                                                          
C 3.0                                                                           
%endblock species_solvent_radius                                                
multigrid_bc:   P P P                                                           
ion_ion_bc:     P P P                                                           
pspot_bc:       P P P                                                           
smeared_ion_bc: P P P                                                           
mg_max_iters_vcycle 500                                                         
mg_vcyc_smoother_iter_pre 4                                                     
mg_vcyc_smoother_iter_post 4                                                    
mg_max_res_ratio 1000.0                                                         
mg_max_iters_newton 300                                                         
edft                    : T                                                     
edft_smearing_width     : 0.1 eV                                                
spin                    : 0.0                                                   
edft_spin_fix           : 2                                                     
spin_polarized          : T                                                     
cutoff_energy :  1000 eV                                                        
kernel_cutoff : 1000 bohr                                                       
xc_functional PBE                                                               
dispersion 4                                                                    
output_detail VERBOSE                                                           
do_properties T                                                                 
cube_format F                                                                   
dx_format F                                                                     
write_denskern T                                                                
write_tightbox_ngwfs T                                                          
write_hamiltonian T                                                             
%block species                                                                  
Li Li 3  5  8.0                                                                 
C  C  6  4  8.0                                                                 
%endblock species                                                               
%block species_pot                                                              
Li '/work/e89/e89/arihant/pseudo/Li.usp'                                        
C '/work/e89/e89/arihant/pseudo/C.usp'                                          
%endblock species_pot                                                           
%BLOCK LATTICE_CART                                                             
ang                                                                             
34.16920551     0.00000000     0.00000000                                       
0.00000000    19.72760000     0.00000000                                        
0.00000000     0.00000000   100.02798000                                        
%ENDBLOCK LATTICE_CART                                                          
positions_xyz_file str.xyz                                                      
     Hash =   000005060151686817321799

--------------------------------------------------------------------------------
-------------------------------- END INPUT FILE --------------------------------
--------------------------------------------------------------------------------


 
 ESDF WARNING(1): "ispbeenergytolerance" (esdf_physical) has no units. Assume "hartree".
<<<<<<<<<<<<<<<<<<<<<<<<<<<<<<<<< Full system >>>>>>>>>>>>>>>>>>>>>>>>>>>>>>>>>>
<<<<<<<<<<<<<<<<<<<<<<<<< Pseudopotential information >>>>>>>>>>>>>>>>>>>>>>>>>>
File: /work/e89/e89/arihant/pseudo/Li.usp [ 2001 points up to Gmax=  52.9 (1/bohr)]
  Atomic number:  3;  ionic charge:  3.000000
    Shell 1: l = 0; rc = 1.19 bohr
    Shell 2: l = 0; rc = 1.25 bohr
File: /work/e89/e89/arihant/pseudo/C.usp [ 2001 points up to Gmax=  52.9 (1/bohr)]
  Atomic number:  6;  ionic charge:  4.000000
    Shell 1: l = 0; rc = 1.19 bohr
  Core charge supplied for Nonlinear Core Corrections
<<<<<<<<<<<<<<<<<<<<<<<<<<<<<<<<<<<<<<<<>>>>>>>>>>>>>>>>>>>>>>>>>>>>>>>>>>>>>>>>

-------------------------- Atom counting information ---------------------------
Symbol    Natoms    Nngwfs    Nprojs
  Li        12        60        24
  C        512      2048       512
.......   ......    ......    ......
Totals:    524      2108       536
--------------------------------------------------------------------------------

=============================== PSINC grid sizes ===============================
                      Simulation cell:  143 x  91 x 416
                              FFT-box:  117 x  91 x 117
                                  PPD:   11 x   7 x   1
Grid space d1=  0.451541543008a0 (KE cutoff=  37.25706Eh =1013.81618eV)
Grid space d2=  0.409667706512a0 (KE cutoff=  45.26271Eh =1231.66098eV)
Grid space d3=  0.454388192297a0 (KE cutoff=  36.79171Eh =1001.15326eV)
================================================================================
  
WARNING in cell_grid_distribute:
Average of less than one 23-slab per proc, so workload cannot be
equally balanced between procs.

********************* Fourier parallelisation information **********************
       Coarse grid (whole simulation cell) dimensions:    143    91   416
          Real-space ('12') slabs/proc (min max mean):      3     4     3
         Recip-space ('23') slabs/proc (min max mean):      0     1     0
********************************************************************************

********************* Fourier parallelisation information **********************
       Double grid (whole simulation cell) dimensions:    286   182   832
          Real-space ('12') slabs/proc (min max mean):      6     7     6
         Recip-space ('23') slabs/proc (min max mean):      1     2     1
********************************************************************************

********************* Fourier parallelisation information **********************
         Fine grid (whole simulation cell) dimensions:    288   184   832
          Real-space ('12') slabs/proc (min max mean):      6     7     6
         Recip-space ('23') slabs/proc (min max mean):      1     2     1
         Grid scale modified to satisfy multigrid solver grid constraints
         Grid scale values after modifification:         2.01  2.02  2.00
********************************************************************************
ONETEP fine grid is 288 x 184 x 832 gridpoints, 64.5704 x 37.2798 x 189.0255 bohr.
FD multigrid is     288 x 184 x 832 gridpoints, 64.5704 x 37.2798 x 189.0255 bohr.


Atom SCF Calculation for Li : Z (AE atom) =   3 : Z (PS atom) =   3
Config String:
Orbitals (num,occ):  3     2.00 1.00 0.00
Orbitals   (num,l):  3        0    0    1
Real-space Grid (nr,dr,rmax): 1343    0.0059612519    8.0000000000
Spherical Bessel Basis (nsws,lmax,cutoff):   37    1  220.4959463253
Confining potential (l,width,scale):  0    3.0000000000  100.0000000000
Confining potential (l,width,scale):  1    3.0000000000  100.0000000000
  1         -3.7050169094   -5.2301177776    2.5388568852   -0.9989538802
  2         -6.0510920273   -4.2679357854    3.2724001845   -1.3422946715
  3         -6.7975021434   -3.8722499620    3.6648237887   -1.5325279919
  4         -7.0147472228   -3.7673066376    3.7864613280   -1.5966989055
  5         -7.0774132854   -3.7446783348    3.8157063634   -1.6161454686
  6         -7.0951992563   -3.7420177453    3.8204515040   -1.6217593843
  7         -7.1001226024   -3.7430426481    3.8200527077   -1.6233132433
  8         -7.1014239576   -3.7441529610    3.8191274553   -1.6237164860
  9         -7.1017352306   -3.7448434699    3.8184905098   -1.6238077213
 10         -7.1017916056   -3.7452114113    3.8181373932   -1.6238209669
 11         -7.1017908912   -3.7453946820    3.8179578223   -1.6238181917
 12         -7.1017822190   -3.7454828903    3.8178702968   -1.6238141227
 13         -7.1017768840   -3.7455162316    3.8178369316   -1.6238119017
 14         -7.1017732849   -3.7455353767    3.8178176959   -1.6238104459
 15         -7.1017709700   -3.7455463461    3.8178066371   -1.6238095253
 16         -7.1017695244   -3.7455526225    3.8178002910   -1.6238089565
 17         -7.1017686390   -3.7455562110    3.8177966534   -1.6238086105
 18         -7.1017681040   -3.7455582619    3.8177945697   -1.6238084022
 19         -7.1017677838   -3.7455594341    3.8177933764   -1.6238082778
 20         -7.1017675934   -3.7455601042    3.8177926929   -1.6238082039
 21         -7.1017674808   -3.7455604874    3.8177923014   -1.6238081602
 22         -7.1017674145   -3.7455607066    3.8177920771   -1.6238081344
Atom SCF converged after  22 iterations to a total energy of     -7.10176741

Atom SCF Calculation for C  : Z (AE atom) =   6 : Z (PS atom) =   4
Config String:
Orbitals (num,occ):  2     2.00 2.00
Orbitals   (num,l):  2        0    1
Real-space Grid (nr,dr,rmax): 1343    0.0059612519    8.0000000000
Spherical Bessel Basis (nsws,lmax,cutoff):   37    1  220.4959463253
Confining potential (l,width,scale):  0    3.0000000000  100.0000000000
Confining potential (l,width,scale):  1    3.0000000000  100.0000000000
  1         -5.8177092822   -1.2555419264    4.5135233515   -1.7471920893
  2         -5.6032261188   -1.3440047989    4.4246587726   -1.7090653419
  3         -5.5936068668   -1.3561735374    4.4140765627   -1.7034094417
  4         -5.5958505747   -1.3587284552    4.4121342699   -1.7022848669
  5         -5.5969687665   -1.3601698222    4.4109982405   -1.7017057890
  6         -5.5975400979   -1.3609792837    4.4103423276   -1.7013975981
  7         -5.5978435204   -1.3614297943    4.4099696476   -1.7012314972
  8         -5.5980096069   -1.3616786122    4.4097605138   -1.7011416075
  9         -5.5981021113   -1.3618152853    4.4096441572   -1.7010929151
 10         -5.5981539939   -1.3618900852    4.4095797860   -1.7010665406
 11         -5.5981831160   -1.3619309228    4.4095443105   -1.7010522599
 12         -5.5981994243   -1.3619531807    4.4095248124   -1.7010445305
 13         -5.5982085235   -1.3619652972    4.4095141175   -1.7010403487
 14         -5.5982135796   -1.3619718867    4.4095082606   -1.7010380870
 15         -5.5982163780   -1.3619754676    4.4095050573   -1.7010368642
 16         -5.5982179208   -1.3619774123    4.4095033073   -1.7010362032
 17         -5.5982187685   -1.3619784678    4.4095023522   -1.7010358460
 18         -5.5982192328   -1.3619790404    4.4095018314   -1.7010356530
 19         -5.5982194864   -1.3619793509    4.4095015476   -1.7010355488
 20         -5.5982196245   -1.3619795192    4.4095013931   -1.7010354925
 21         -5.5982196995   -1.3619796104    4.4095013090   -1.7010354621
Atom SCF converged after  21 iterations to a total energy of     -5.59821970

BC: Task: GEOMETRYOPTIMIZATION
BC: +++++++++++++++ Summary of boundary conditions ++++++++++++++
BC: |       Component       |     Keyword     |   Periodicity   |
BC: |                       |                 |     X  Y  Z [1] |
BC: |-----------------------------------------------------------|
BC: | Ion-ion               | ion_ion_bc [2]  |     P  P  P     |
BC: | Local pseudopotential | pspot_bc [3]    |     P  P  P     |
BC: | Multigrid solver      | multigrid_bc    |     P  P  P     |
BC: | Smeared ions          | smeared_ion_bc  |     P  P  P     |
BC: | Van der Waals         | vdw_bc          |     P  P  P     |
BC: +++++++++++++++++++++++++++++++++++++++++++++++++++++++++++++
BC: P: Periodic, O: Open.
BC: [1] Not strictly along X, Y, Z but rather along lattice vectors A1, A2, A3.
BC: [2] Also affected by: pbc_correction_cutoff, cutoff_coulomb_type,
BC:     is_smeared_ion_rep, is_implicit_solvent, openbc_ion_ion.
BC: [3] Also affected by: is_smeared_ion_rep, is_implicit_solvent, openbc_pspot.

================================================================================
<<<<<<<<<<<<<<<< Resuming previous ONETEP Geometry Optimisation >>>>>>>>>>>>>>>>
================================================================================

 Geometry Optimisation: output file is "graphite.geom"
 
 Reading continuation file "graphite.continuation" ...done
 Geometry Optimisation: read_tightbox_ngwfs parameter over-ridden to TRUE
 Geometry Optimisation: read_hamiltonian parameter over-ridden to T
 
                           -------------------------------
                                     Cell Contents
                           -------------------------------
 
            xxxxxxxxxxxxxxxxxxxxxxxxxxxxxxxxxxxxxxxxxxxxxxxxxxxxxxxxxxxx
            x  Element    Atom      Absolute co-ordinates of atoms     x
            x            Number        x           y           z       x
            x----------------------------------------------------------x
            x    Li        1       24.795553    4.396808   16.225742   x
            x    Li        2       20.188250    1.704009   16.253325   x
            x    Li        3       20.458300   11.855722   16.346141   x
            x    Li        4       20.312764    6.810327   16.438844   x
            x    Li        5       15.810594    9.243167   16.416983   x
            x    Li        6       14.918083    3.712777   16.556273   x
            x    Li        7       25.870889   10.044794   16.511252   x
            x    Li        8       22.811992    7.823606   20.703094   x
            x    Li        9       18.218092    5.458942   20.796612   x
            x    Li       10       22.919004    2.133547   21.413102   x
            x    Li       11       18.136415   11.113566   21.668896   x
            x    Li       12       20.785867    6.565792   26.869942   x
            x    C        13       32.356155    4.519217    6.379685   x
            x    C        14       29.667656    4.519128    6.403028   x
            x    C        15       36.391476    6.849644    6.360576   x
            x    C        16       33.702822    6.849739    6.370242   x
            x    C        17       40.427138    9.180043    6.356402   x
            x    C        18       37.738317    9.180244    6.356148   x
            x    C        19       32.355971    9.180252    6.382384   x
            x    C        20       41.774129   11.510562    6.357204   x
            x    C        21       36.391489   11.510667    6.362019   x
            x    C        22       44.462953   11.510258    6.359107   x
            x    C        23       45.809987   13.840498    6.363527   x
            x    C        24        0.071424   23.159992    6.348764   x
            x    C        25       61.953306   23.160152    6.351683   x
            x    C        26        4.107194   25.489708    6.347108   x
            x    C        27        1.418679   25.489885    6.346325   x
            x    C        28        8.142870   27.819444    6.348204   x
            x    C        29        5.454513   27.819583    6.345639   x
            x    C        30        0.071235   27.819744    6.351367   x
            x    C        31        9.490113   30.149357    6.351454   x
            x    C        32        4.106912   30.149461    6.350081   x
            x    C        33       12.178205   30.149113    6.356176   x
            x    C        34       13.525433   32.478925    6.371631   x
            x    C        35       36.391734    2.188820    6.388490   x
            x    C        36       33.702962    2.188602    6.383370   x
            x    C        37       28.320654    2.188626    6.409095   x
            x    C        38       25.632096    2.188595    6.435886   x
            x    C        39       40.427281    4.519263    6.386579   x
            x    C        40       37.738487    4.519146    6.374841   x
            x    C        41       41.774135    6.849646    6.372495   x
            x    C        42       44.462927    6.849653    6.383493   x
            x    C        43       28.320649    6.849815    6.428435   x
            x    C        44       45.810013    9.179940    6.370422   x
            x    C        45       48.498682    9.179857    6.377471   x
            x    C        46       29.667562    9.180578    6.415490   x
            x    C        47       33.702708   11.510955    6.377933   x
            x    C        48       49.845777   11.510128    6.367799   x
            x    C        49       52.534429   11.510003    6.372528   x
            x    C        50       40.427238   13.840753    6.364739   x
            x    C        51       37.738316   13.841072    6.370338   x
            x    C        52       48.498735   13.840268    6.362564   x
            x    C        53       53.881610   13.840183    6.365808   x
            x    C        54       44.462919   16.170705    6.377508   x
            x    C        55       49.845791   16.170474    6.368484   x
            x    C        56       52.534436   16.170266    6.363453   x
            x    C        57       61.953300   18.500331    6.362514   x
            x    C        58       56.570203   18.500224    6.359884   x
            x    C        59        4.107187   20.830055    6.376600   x
            x    C        60        1.418723   20.830154    6.362891   x
            x    C        61       60.606013   20.830171    6.353657   x
            x    C        62       57.917383   20.830293    6.360527   x
            x    C        63        8.142940   23.159744    6.378124   x
            x    C        64        5.454681   23.159900    6.364247   x
            x    C        65        9.490480   25.489567    6.363705   x
            x    C        66       12.178499   25.489429    6.374573   x
            x    C        67       60.605897   25.490028    6.361945   x
            x    C        68       13.526070   27.819217    6.363697   x
            x    C        69       16.213905   27.819028    6.372879   x
            x    C        70       61.953131   27.819892    6.365194   x
            x    C        71        1.418448   30.149633    6.357276   x
            x    C        72       17.561403   30.148727    6.373300   x
            x    C        73       20.249197   30.148612    6.382257   x
            x    C        74        8.142379   32.479311    6.361209   x
            x    C        75        5.454066   32.479408    6.362495   x
            x    C        76       16.213420   32.478576    6.379040   x
            x    C        77       21.596727   32.478274    6.392427   x
            x    C        78       12.177523   34.808872    6.393230   x
            x    C        79       17.560649   34.808256    6.408222   x
            x    C        80       20.248912   34.808020    6.410586   x
            x    C        81       29.667575   37.137998    6.397795   x
            x    C        82       24.284879   37.137984    6.425275   x
            x    C        83       24.284800    4.519046    6.474718   x
            x    C        84       49.845779    6.849778    6.403415   x
            x    C        85       25.632180    6.849838    6.473007   x
            x    C        86       53.881619    9.179964    6.392438   x
            x    C        87       28.320513   11.510954    6.441783   x
            x    C        88       32.356013   13.841006    6.398969   x
            x    C        89       56.570211   13.840133    6.370467   x
            x    C        90       41.774156   16.170952    6.382017   x
            x    C        91       36.391506   16.171026    6.391817   x
            x    C        92       60.606022   16.170277    6.370497   x
            x    C        93       57.917469   16.170275    6.363999   x
            x    C        94        0.071360   18.500292    6.372651   x
            x    C        95       45.809954   18.500736    6.398712   x
            x    C        96       48.498581   18.500488    6.388431   x
            x    C        97       53.881555   18.500421    6.367599   x
            x    C        98       56.570078   23.160179    6.377755   x
            x    C        99       17.561565   25.489364    6.397536   x
            x    C       100       57.917284   25.490160    6.382942   x
            x    C       101       21.596846   27.818976    6.394250   x
            x    C       102       60.605763   30.149751    6.389071   x
            x    C       103        0.071025   32.479551    6.376970   x
            x    C       104       24.284812   32.478177    6.396276   x
            x    C       105        9.489319   34.809207    6.386936   x
            x    C       106        4.106568   34.809358    6.384558   x
            x    C       107       28.320618   34.808122    6.400722   x
            x    C       108       25.632110   34.807923    6.404154   x
            x    C       109       32.356317   37.138286    6.394527   x
            x    C       110       13.524447   37.138604    6.435831   x
            x    C       111       16.212735   37.138249    6.444169   x
            x    C       112       21.596292   37.137922    6.439027   x
            x    C       113       17.560002    2.188483    6.491122   x
            x    C       114       41.774219    2.189132    6.425419   x
            x    C       115       20.248637    2.188414    6.482826   x
            x    C       116       21.596243    4.518979    6.508483   x
            x    C       117       45.809945    4.519543    6.417928   x
            x    C       118       48.498625    4.519717    6.428052   x
            x    C       119       52.534347    6.849879    6.409774   x
            x    C       120       24.284887    9.180430    6.508798   x
            x    C       121       56.570138    9.180113    6.400970   x
            x    C       122       57.917377   11.510265    6.389912   x
            x    C       123       25.632117   11.511190    6.488529   x
            x    C       124       29.667319   13.841387    6.428722   x
            x    C       125       61.953155   13.840393    6.394213   x
            x    C       126       33.702713   16.171269    6.404487   x
            x    C       127        1.418491   16.170530    6.403640   x
            x    C       128       40.427198   18.500896    6.409271   x
            x    C       129        5.454266   18.500404    6.414755   x
            x    C       130       49.845679   20.830420    6.407493   x
            x    C       131        9.490146   20.830137    6.419151   x
            x    C       132       52.534294   20.830349    6.388972   x
            x    C       133       53.881525   23.160323    6.401011   x
            x    C       134       13.525984   23.159753    6.410856   x
            x    C       135       16.213754   23.159764    6.423453   x
            x    C       136       20.249220   25.489373    6.406800   x
            x    C       137       56.570025   27.820013    6.415005   x
            x    C       138       24.284688   27.819003    6.404990   x
            x    C       139       25.632070   30.148551    6.402112   x
            x    C       140       57.917304   30.149900    6.417821   x
            x    C       141       61.953005   32.479604    6.394446   x
            x    C       142       29.667562   32.478259    6.410720   x
            x    C       143        1.418163   34.809457    6.391244   x
            x    C       144       33.703125   34.808181    6.416515   x
            x    C       145        8.141785   37.139206    6.416830   x
            x    C       146       37.738614   37.138389    6.422691   x
            x    C       147       12.176751    2.188990    6.475074   x
            x    C       148       44.462934    2.189418    6.444158   x
            x    C       149        9.488509    2.189379    6.461228   x
            x    C       150       53.881515    4.519916    6.435596   x
            x    C       151       57.917287    6.850076    6.422557   x
            x    C       152       60.605880   11.510272    6.403287   x
            x    C       153        0.071132   13.840497    6.413961   x
            x    C       154       28.320228   16.171215    6.448484   x
            x    C       155        4.106737   16.170587    6.429862   x
            x    C       156       37.738458   18.501006    6.413599   x
            x    C       157       32.355869   18.500906    6.426414   x
            x    C       158        8.142425   18.500454    6.442556   x
            x    C       159       44.462807   20.830468    6.433877   x
            x    C       160       12.178119   20.830147    6.440728   x
            x    C       161       41.774173   20.830565    6.440416   x
            x    C       162       21.596698   23.159938    6.437130   x
            x    C       163       25.631901   25.489522    6.425012   x
            x    C       164       28.320327   30.148746    6.414033   x
            x    C       165       32.356188   32.478525    6.425047   x
            x    C       166       60.605708   34.809656    6.419369   x
            x    C       167       36.391844   34.808476    6.437082   x
            x    C       168        5.453553   37.139361    6.412404   x
            x    C       169        0.070855   37.139451    6.415109   x
            x    C       170       40.427369   37.138812    6.446539   x
            x    C       171       49.845743    2.189771    6.463026   x
            x    C       172        4.106253    2.189745    6.438940   x
            x    C       173        1.417956    2.189693    6.434404   x
            x    C       174       52.534300    2.190001    6.459798   x
            x    C       175       60.605681    2.189977    6.436794   x
            x    C       176       57.917259    2.189902    6.444496   x
            x    C       177       16.212287    4.518832    6.535828   x
            x    C       178       13.523720    4.519094    6.526847   x
            x    C       179       56.570039    4.520052    6.435180   x
            x    C       180       61.952870    4.519976    6.439406   x
            x    C       181       60.605739    6.850179    6.430861   x
            x    C       182       20.248687    6.849481    6.552842   x
            x    C       183       61.953015    9.180293    6.427222   x
            x    C       184        0.070860    9.180422    6.445919   x
            x    C       185       21.596385    9.180501    6.554299   x
            x    C       186        1.418061   11.510583    6.446175   x
            x    C       187        5.453592   13.840803    6.473749   x
            x    C       188       24.284756   13.841466    6.508897   x
            x    C       189        9.489229   16.170913    6.495611   x
            x    C       190       25.631876   16.171481    6.481160   x
            x    C       191       29.667238   18.501017    6.441288   x
            x    C       192       13.525243   18.500844    6.494703   x
            x    C       193       24.284501   18.501184    6.479944   x
            x    C       194       17.561147   20.830394    6.468155   x
            x    C       195       36.391486   20.830566    6.439732   x
            x    C       196       33.702778   20.830634    6.440380   x
            x    C       197       20.248934   20.830554    6.469038   x
            x    C       198       28.320072   20.830548    6.447419   x
            x    C       199       25.631794   20.830618    6.456304   x
            x    C       200       48.498569   23.160189    6.447783   x
            x    C       201       45.809971   23.160213    6.465022   x
            x    C       202       24.284462   23.160086    6.439060   x
            x    C       203       29.667240   23.160114    6.445284   x
            x    C       204       28.320136   25.489682    6.434724   x
            x    C       205       52.534253   25.490079    6.440096   x
            x    C       206       29.667397   27.819131    6.433155   x
            x    C       207       32.355896   27.819285    6.450787   x
            x    C       208       53.881514   27.819961    6.449684   x
            x    C       209       33.702981   30.148803    6.452166   x
            x    C       210       37.738631   32.478730    6.475233   x
            x    C       211       56.570052   32.479807    6.447867   x
            x    C       212       41.774232   34.809028    6.491369   x
            x    C       213       57.917243   34.809654    6.443261   x
            x    C       214       61.952930   37.139562    6.424879   x
            x    C       215       45.809986   37.139360    6.487364   x
            x    C       216       56.570044   37.139762    6.455449   x
            x    C       217        5.453155    4.519805    6.472412   x
            x    C       218        8.141309    4.519705    6.490274   x
            x    C       219        0.070823    4.520006    6.445490   x
            x    C       220        1.417903    6.850201    6.459522   x
            x    C       221        4.106102    6.850182    6.480040   x
            x    C       222       17.559939    6.849519    6.571093   x
            x    C       223        5.453121    9.180448    6.499984   x
            x    C       224        4.106264   11.510722    6.475820   x
            x    C       225       20.248734   11.511208    6.574262   x
            x    C       226        8.141642   13.840974    6.508746   x
            x    C       227       21.596339   13.841601    6.547898   x
            x    C       228       20.248729   16.171616    6.537568   x
            x    C       229       12.177244   16.171217    6.524309   x
            x    C       230       16.213182   18.501040    6.507622   x
            x    C       231       21.596493   18.501174    6.498967   x
            x    C       232       37.738486   23.160197    6.467320   x
            x    C       233       40.427101   23.160227    6.472001   x
            x    C       234       32.355749   23.160188    6.450334   x
            x    C       235       33.702826   25.489728    6.462893   x
            x    C       236       36.391456   25.489826    6.478084   x
            x    C       237       49.845749   25.490060    6.469678   x
            x    C       238       37.738527   27.819386    6.495295   x
            x    C       239       36.391562   30.149128    6.476945   x
            x    C       240       52.534379   30.149834    6.485512   x
            x    C       241       40.427231   32.479088    6.501869   x
            x    C       242       53.881630   32.479755    6.481174   x
            x    C       243       52.534370   34.809792    6.493647   x
            x    C       244       44.462863   34.809412    6.509842   x
            x    C       245       48.498648   37.139615    6.492246   x
            x    C       246       53.881568   37.139702    6.473977   x
            x    C       247        9.488038    6.849938    6.531199   x
            x    C       248       12.176289    6.849849    6.554666   x
            x    C       249        8.141152    9.180571    6.530879   x
            x    C       250       16.212243    9.180409    6.593872   x
            x    C       251       13.523671    9.180473    6.584353   x
            x    C       252        9.488283   11.510892    6.544938   x
            x    C       253       17.560033   11.511215    6.594320   x
            x    C       254       16.212554   13.841672    6.579668   x
            x    C       255       13.524147   13.841440    6.568097   x
            x    C       256       17.560534   16.171616    6.549085   x
            x    C       257       41.774189   25.489818    6.502710   x
            x    C       258       44.462832   25.489918    6.501476   x
            x    C       259       40.427106   27.819529    6.513178   x
            x    C       260       48.498616   27.819785    6.508004   x
            x    C       261       45.810025   27.819653    6.523687   x
            x    C       262       41.774233   30.149326    6.525076   x
            x    C       263       49.845894   30.149730    6.515315   x
            x    C       264       48.498649   32.479710    6.527481   x
            x    C       265       45.810012   32.479508    6.533467   x
            x    C       266       49.845802   34.809662    6.512301   x
            x    C       267       12.176510   11.511106    6.574405   x
            x    C       268       44.462828   30.149551    6.534731   x
            x    C       269       27.027722    4.500854   12.473857   x
            x    C       270       29.719148    4.503790   12.461108   x
            x    C       271       31.060089    6.837489   12.460675   x
            x    C       272       29.718957    9.173467   12.448986   x
            x    C       273       27.026678    9.176955   12.451046   x
            x    C       274       59.274835   23.150238   12.503033   x
            x    C       275       61.961213   23.150264   12.495059   x
            x    C       276       63.307016   25.478573   12.496129   x
            x    C       277       61.961308   27.807192   12.508057   x
            x    C       278       59.274954   27.807987   12.528095   x
            x    C       279       25.675480    2.156345   12.485504   x
            x    C       280       31.052966    2.169803   12.473532   x
            x    C       281       35.086489    4.505870   12.489160   x
            x    C       282       33.744922    6.839327   12.473811   x
            x    C       283       35.086784    9.173029   12.476425   x
            x    C       284       31.055207   11.509850   12.464392   x
            x    C       285       49.866718   16.161263   12.503631   x
            x    C       286       57.929046   20.820931   12.497813   x
            x    C       287       63.306275   20.821709   12.496541   x
            x    C       288        2.768256   23.150838   12.498840   x
            x    C       289        1.422853   25.478314   12.490193   x
            x    C       290        2.768262   27.805713   12.488239   x
            x    C       291       63.306363   30.135552   12.508938   x
            x    C       292       17.560026   34.769858   12.492387   x
            x    C       293       33.741509    2.174159   12.489918   x
            x    C       294       39.118540    6.839881   12.493635   x
            x    C       295       25.672890    6.838857   12.513702   x
            x    C       296       37.774067    9.171698   12.479366   x
            x    C       297       49.867311   11.500820   12.504628   x
            x    C       298       47.181394   11.501517   12.501137   x
            x    C       299       41.805316   11.502400   12.484956   x
            x    C       300       39.117880   11.503613   12.480496   x
            x    C       301       33.742829   11.505169   12.474940   x
            x    C       302       25.673023   11.521416   12.480592   x
            x    C       303       51.212239   13.830730   12.499875   x
            x    C       304       53.898147   13.830431   12.499611   x
            x    C       305       45.836086   13.832007   12.497671   x
            x    C       306       43.149618   13.833130   12.494115   x
            x    C       307       29.707653   13.842183   12.482212   x
            x    C       308       55.243103   16.160812   12.496482   x
            x    C       309       47.180270   16.162075   12.508501   x
            x    C       310       51.211397   18.491391   12.512010   x
            x    C       311       53.897890   18.491076   12.501323   x
            x    C       312       45.834268   18.492485   12.529482   x
            x    C       313       59.274199   18.491435   12.495101   x
            x    C       314       61.960265   18.492308   12.498661   x
            x    C       315        1.421918   20.822877   12.503598   x
            x    C       316        6.801917   25.478253   12.498997   x
            x    C       317       57.929444   25.479198   12.521819   x
            x    C       318        5.455176   27.805074   12.485893   x
            x    C       319       17.566346   30.127482   12.494049   x
            x    C       320       14.875223   30.128517   12.497125   x
            x    C       321        9.488595   30.130691   12.489512   x
            x    C       322        6.800716   30.132572   12.487038   x
            x    C       323        1.422039   30.133627   12.493728   x
            x    C       324       57.929272   30.137643   12.553910   x
            x    C       325       18.917203   32.451452   12.486952   x
            x    C       326       21.611485   32.451129   12.485384   x
            x    C       327       13.523503   32.452639   12.493653   x
            x    C       328       10.833970   32.457652   12.494901   x
            x    C       329       61.960209   32.465142   12.526864   x
            x    C       330       22.967702   34.773571   12.487672   x
            x    C       331       14.869566   34.775873   12.495915   x
            x    C       332       18.910186   37.097300   12.513012   x
            x    C       333       21.616765   37.095430   12.500774   x
            x    C       334       13.514787   37.101462   12.505125   x
            x    C       335       27.015070   37.107149   12.480745   x
            x    C       336       29.705401   37.117087   12.478683   x
            x    C       337       14.857606    2.153912   12.532512   x
            x    C       338       21.616200    4.500842   12.572784   x
            x    C       339       37.774120    4.508105   12.502267   x
            x    C       340       41.805164    6.840132   12.505706   x
            x    C       341       22.967812    6.838497   12.565959   x
            x    C       342       51.212454    9.170522   12.522467   x
            x    C       343       53.898225    9.170333   12.526150   x
            x    C       344       45.836414    9.171027   12.507598   x
            x    C       345       43.150190    9.170890   12.497081   x
            x    C       346       55.243350   11.500449   12.513195   x
            x    C       347       59.273721   13.831032   12.511262   x
            x    C       348       37.772271   13.835268   12.485495   x
            x    C       349       35.083650   13.837946   12.487763   x
            x    C       350       27.014354   13.851107   12.503719   x
            x    C       351       57.929065   16.161036   12.496888   x
            x    C       352       41.803362   16.164065   12.505478   x
            x    C       353       63.304630   16.162644   12.516553   x
            x    C       354       39.115634   16.166096   12.502958   x
            x    C       355       43.147279   18.493767   12.532233   x
            x    C       356        2.766989   18.494441   12.529471   x
            x    C       357       47.179057   20.821701   12.554273   x
            x    C       358       53.897669   23.150156   12.533162   x
            x    C       359        5.455249   23.151330   12.508471   x
            x    C       360        9.489825   25.478278   12.507998   x
            x    C       361       55.243047   25.479570   12.545012   x
            x    C       362       18.918023   27.803049   12.508103   x
            x    C       363       21.609996   27.802928   12.508163   x
            x    C       364       13.526402   27.803241   12.503499   x
            x    C       365       10.836899   27.804602   12.498627   x
            x    C       366       22.961752   30.128824   12.499066   x
            x    C       367       27.005697   32.456539   12.501470   x
            x    C       368        5.453430   32.459809   12.492048   x
            x    C       369        2.766847   32.462038   12.498170   x
            x    C       370       59.274233   32.466817   12.552938   x
            x    C       371       25.661006   34.779981   12.485368   x
            x    C       372        9.484942   34.784100   12.501568   x
            x    C       373       31.046210   34.788266   12.504428   x
            x    C       374        6.797374   34.789082   12.506151   x
            x    C       375       10.826090   37.113549   12.512210   x
            x    C       376       35.083269   37.121539   12.518975   x
            x    C       377       22.970652    2.157241   12.542385   x
            x    C       378        9.478223    2.165504   12.544057   x
            x    C       379       39.117715    2.176677   12.535808   x
            x    C       380       49.867331    6.840261   12.542445   x
            x    C       381       47.181269    6.840315   12.535674   x
            x    C       382       59.273894    9.170155   12.539549   x
            x    C       383       57.928739   11.500737   12.519570   x
            x    C       384       61.959135   13.831846   12.522431   x
            x    C       385        1.420585   16.164793   12.535667   x
            x    C       386       33.736847   16.167517   12.502199   x
            x    C       387       31.046785   16.170901   12.509448   x
            x    C       388       37.768337   18.495813   12.522101   x
            x    C       389       55.242848   20.820927   12.507668   x
            x    C       390       41.800351   20.823107   12.561014   x
            x    C       391        6.800820   20.823851   12.544432   x
            x    C       392       17.566855   25.478345   12.529682   x
            x    C       393       14.875568   25.478161   12.528544   x
            x    C       394       27.002208   27.804362   12.520476   x
            x    C       395       25.654255   30.130035   12.505453   x
            x    C       396       29.697550   32.460145   12.511395   x
            x    C       397       33.736491   34.791577   12.523998   x
            x    C       398        1.420404   34.791905   12.513885   x
            x    C       399       63.304404   34.794691   12.528878   x
            x    C       400        5.451246   37.118701   12.525965   x
            x    C       401       17.559315    2.156987   12.579569   x
            x    C       402        6.793846    2.171710   12.555426   x
            x    C       403        1.419535    2.174652   12.547569   x
            x    C       404       18.913773    4.500228   12.608054   x
            x    C       405       13.502216    4.496751   12.578488   x
            x    C       406       45.836180    4.509622   12.559272   x
            x    C       407       43.149956    4.509612   12.541895   x
            x    C       408       55.243018    6.839887   12.548496   x
            x    C       409       57.928673    6.839487   12.549703   x
            x    C       410       61.959350    9.169796   12.549074   x
            x    C       411       21.618788    9.174367   12.620786   x
            x    C       412       63.304162   11.501140   12.546612   x
            x    C       413        2.765208   13.834061   12.571859   x
            x    C       414       25.659899   16.179612   12.550183   x
            x    C       415       35.079904   18.497002   12.521046   x
            x    C       416        5.453715   18.496432   12.557136   x
            x    C       417       29.697274   18.498157   12.530472   x
            x    C       418       49.865773   20.821240   12.537726   x
            x    C       419       39.112804   20.824320   12.555040   x
            x    C       420       33.731884   20.824232   12.536606   x
            x    C       421       51.210962   23.150396   12.556280   x
            x    C       422       45.832803   23.151081   12.593246   x
            x    C       423       13.526261   23.153077   12.560014   x
            x    C       424       10.836707   23.151766   12.545872   x
            x    C       425       22.960502   25.477983   12.528167   x
            x    C       426       25.652761   25.478366   12.527208   x
            x    C       427       29.693651   27.805493   12.531036   x
            x    C       428       53.897727   27.809105   12.581472   x
            x    C       429       31.042164   30.132677   12.533527   x
            x    C       430       35.079764   32.462334   12.559361   x
            x    C       431       57.928811   34.797391   12.573153   x
            x    C       432        2.764623   37.122543   12.529220   x
            x    C       433       37.771777   37.124816   12.546546   x
            x    C       434       61.958958   37.125756   12.545944   x
            x    C       435       41.805069    2.178246   12.561683   x
            x    C       436       63.303917    2.176636   12.550880   x
            x    C       437       55.242790    2.179201   12.585899   x
            x    C       438       57.928321    2.178220   12.570905   x
            x    C       439       10.816049    4.502455   12.590007   x
            x    C       440        2.764532    4.506489   12.572305   x
            x    C       441        5.449763    4.504291   12.584765   x
            x    C       442       59.273642    4.508639   12.560757   x
            x    C       443       61.959187    4.508160   12.557209   x
            x    C       444       51.211952    4.509837   12.573347   x
            x    C       445       53.897881    4.509590   12.569761   x
            x    C       446       63.304681    6.838954   12.561614   x
            x    C       447        1.419509    6.838655   12.576290   x
            x    C       448        2.764527    9.170630   12.594621   x
            x    C       449        1.419695   11.502354   12.570477   x
            x    C       450       22.970864   11.514760   12.614858   x
            x    C       451       27.005193   18.501320   12.551009   x
            x    C       452        9.488503   20.825623   12.572128   x
            x    C       453       31.041657   20.825124   12.537880   x
            x    C       454       22.960978   20.827487   12.576719   x
            x    C       455       25.653511   20.827403   12.557195   x
            x    C       456       43.145451   23.151589   12.599443   x
            x    C       457       35.077097   23.152079   12.560402   x
            x    C       458       37.765833   23.152173   12.576119   x
            x    C       459       27.001856   23.152445   12.541739   x
            x    C       460       29.693167   23.151856   12.539359   x
            x    C       461       18.917515   23.153297   12.564761   x
            x    C       462       21.609485   23.153432   12.555244   x
            x    C       463       31.040070   25.478666   12.544115   x
            x    C       464       33.730031   25.479233   12.561312   x
            x    C       465       35.077127   27.806608   12.579429   x
            x    C       466       33.731937   30.134279   12.556685   x
            x    C       467       55.242992   30.138283   12.586092   x
            x    C       468       59.273329   37.127393   12.565396   x
            x    C       469       49.866775    2.179720   12.605248   x
            x    C       470       47.180885    2.179293   12.603133   x
            x    C       471       17.563995    6.834232   12.667302   x
            x    C       472        6.792874    6.838438   12.625901   x
            x    C       473        5.449780    9.172598   12.628794   x
            x    C       474        5.451812   13.837492   12.611571   x
            x    C       475       21.619252   13.859628   12.631271   x
            x    C       476        6.797991   16.167284   12.609214   x
            x    C       477       22.967620   16.183202   12.600682   x
            x    C       478       21.610739   18.505243   12.610917   x
            x    C       479       17.565993   20.828945   12.612647   x
            x    C       480       14.874822   20.827422   12.616381   x
            x    C       481       49.865360   25.479930   12.598630   x
            x    C       482       39.111433   25.479933   12.612010   x
            x    C       483       37.765849   27.807351   12.610764   x
            x    C       484       37.768197   32.464299   12.595295   x
            x    C       485       53.897893   32.468223   12.615817   x
            x    C       486       39.115346   34.794258   12.592870   x
            x    C       487       55.242784   34.798439   12.604078   x
            x    C       488       53.897704   37.129023   12.609308   x
            x    C       489        9.474195    6.839224   12.640454   x
            x    C       490        6.795171   11.504628   12.649674   x
            x    C       491        9.485627   16.171394   12.654366   x
            x    C       492       10.834031   18.498305   12.635573   x
            x    C       493       18.916710   18.504634   12.647139   x
            x    C       494       41.799154   25.480008   12.628437   x
            x    C       495       39.112695   30.135773   12.629272   x
            x    C       496       41.803006   34.796520   12.629197   x
            x    C       497       43.149259   37.127499   12.612812   x
            x    C       498       51.211734   37.129496   12.629749   x
            x    C       499       18.917215    9.172689   12.705588   x
            x    C       500       10.817205    9.173623   12.691054   x
            x    C       501        9.480580   11.509625   12.688690   x
            x    C       502       13.523661   18.502868   12.662398   x
            x    C       503       51.211017   27.809291   12.615138   x
            x    C       504       43.145261   27.808578   12.660382   x
            x    C       505       41.800049   30.137223   12.660650   x
            x    C       506       45.835619   37.128690   12.633579   x
            x    C       507       14.860700    6.834423   12.703219   x
            x    C       508       13.502828    9.177335   12.711821   x
            x    C       509       10.828446   13.841654   12.702154   x
            x    C       510       17.560856   16.185816   12.701055   x
            x    C       511       47.178398   25.480037   12.622248   x
            x    C       512       45.832785   27.808871   12.659887   x
            x    C       513       43.146855   32.466962   12.667083   x
            x    C       514       49.866442   34.799047   12.656640   x
            x    C       515       13.515171   13.853207   12.734107   x
            x    C       516       18.913204   13.859503   12.706087   x
            x    C       517       14.869787   16.177914   12.713359   x
            x    C       518       45.833996   32.468116   12.680360   x
            x    C       519       51.211376   32.468563   12.649688   x
            x    C       520       47.179824   34.798700   12.666716   x
            x    C       521       14.857264   11.520784   12.747099   x
            x    C       522       17.559526   11.521618   12.752429   x
            x    C       523       47.179080   30.138480   12.675158   x
            x    C       524       49.865927   30.138517   12.652286   x
            xxxxxxxxxxxxxxxxxxxxxxxxxxxxxxxxxxxxxxxxxxxxxxxxxxxxxxxxxxxx
 

LBFGS: continuation file name is "graphite.continuation"
 LBFGS: Restarting previous  geometry optimization.
 avg_mass=  21682.529373681005
 Enthalpy contributions:
                  total energy=  -2.79057511E+003 Eh
        diagonal pressure term=   0.00000000E+000 Eh
    off-diagonal pressure term=   0.00000000E+000 Eh
 LBFGS: finished iteration   0  with enthalpy= -2.790575112367E+003 Eh
  
 +-----------+-----------------+-----------------+------------+-----+ <-- LBFGS
 | Parameter |      value      |    tolerance    |    units   | OK? | <-- LBFGS
 +-----------+-----------------+-----------------+------------+-----+ <-- LBFGS
 |  dE/ion   |   0.000000E+000 |   1.000000E-006 |         Eh | No  | <-- LBFGS
 |  |F|max   |   1.223037E-003 |   2.000000E-003 |    Eh/Bohr | Yes | <-- LBFGS
 |  |dR|max  |   0.000000E+000 |   5.000000E-003 |       Bohr | No  | <-- LBFGS
 +-----------+-----------------+-----------------+------------+-----+ <-- LBFGS
  

================================================================================
 Starting LBFGS iteration    1 ...
================================================================================
 Writing xyz coordinates to file "graphite.xyz" ... done

 Writing continuation file "graphite.continuation" ...done
 Backing up NGWFs to file "graphite.tightbox_ngwfs.bfgs_back" ... done
 Backing up Hamiltonian to file "graphite.ham.bfgs_back" ... done
  
 +------------+-------------+-------------+-----------------+ <-- min LBFGS
 |    Step    |   lambda    |   F.delta   |    enthalpy     | <-- min LBFGS
 +------------+-------------+-------------+-----------------+ <-- min LBFGS
 |  previous  |    0.000000 |    0.000023 |    -2790.575112 | <-- min LBFGS
 +------------+-------------+-------------+-----------------+ <-- min LBFGS
  

--------------------------------------------------------------------------------
 LBFGS: starting iteration   1 with trial guess (lambda=    1.000000)
--------------------------------------------------------------------------------
 
                           -------------------------------
                                     Cell Contents
                           -------------------------------
 
            xxxxxxxxxxxxxxxxxxxxxxxxxxxxxxxxxxxxxxxxxxxxxxxxxxxxxxxxxxxx
            x  Element    Atom      Absolute co-ordinates of atoms     x
            x            Number        x           y           z       x
            x----------------------------------------------------------x
            x    Li        1       24.794673    4.394945   16.226788   x
            x    Li        2       20.190880    1.702773   16.254714   x
            x    Li        3       20.457012   11.856374   16.348230   x
            x    Li        4       20.313466    6.810017   16.443973   x
            x    Li        5       15.811274    9.245175   16.418971   x
            x    Li        6       14.918355    3.712918   16.557595   x
            x    Li        7       25.871437   10.044773   16.512023   x
            x    Li        8       22.812183    7.824193   20.704390   x
            x    Li        9       18.217316    5.457656   20.797630   x
            x    Li       10       22.918185    2.135965   21.416076   x
            x    Li       11       18.137498   11.110683   21.671818   x
            x    Li       12       20.785396    6.565690   26.867570   x
            x    C        13       32.356164    4.519227    6.379073   x
            x    C        14       29.667686    4.519142    6.402325   x
            x    C        15       36.391504    6.849646    6.360048   x
            x    C        16       33.702857    6.849736    6.369659   x
            x    C        17       40.427146    9.180033    6.355921   x
            x    C        18       37.738344    9.180241    6.355659   x
            x    C        19       32.355989    9.180245    6.381774   x
            x    C        20       41.774154   11.510531    6.356737   x
            x    C        21       36.391516   11.510656    6.361519   x
            x    C        22       44.462968   11.510240    6.358623   x
            x    C        23       45.809997   13.840486    6.363044   x
            x    C        24        0.071430   23.159977    6.348294   x
            x    C        25       61.953315   23.160150    6.351223   x
            x    C        26        4.107217   25.489712    6.346639   x
            x    C        27        1.418697   25.489885    6.345853   x
            x    C        28        8.142879   27.819454    6.347754   x
            x    C        29        5.454534   27.819601    6.345191   x
            x    C        30        0.071241   27.819765    6.350896   x
            x    C        31        9.490134   30.149365    6.350992   x
            x    C        32        4.106926   30.149485    6.349637   x
            x    C        33       12.178219   30.149127    6.355693   x
            x    C        34       13.525441   32.478948    6.371081   x
            x    C        35       36.391754    2.188842    6.387899   x
            x    C        36       33.702993    2.188632    6.382778   x
            x    C        37       28.320687    2.188659    6.408391   x
            x    C        38       25.632137    2.188609    6.435067   x
            x    C        39       40.427296    4.519290    6.386001   x
            x    C        40       37.738515    4.519159    6.374288   x
            x    C        41       41.774155    6.849662    6.371962   x
            x    C        42       44.462927    6.849655    6.382927   x
            x    C        43       28.320688    6.849817    6.427638   x
            x    C        44       45.810024    9.179928    6.369904   x
            x    C        45       48.498684    9.179858    6.376944   x
            x    C        46       29.667582    9.180575    6.414753   x
            x    C        47       33.702747   11.510936    6.377365   x
            x    C        48       49.845795   11.510124    6.367311   x
            x    C        49       52.534445   11.509989    6.372058   x
            x    C        50       40.427251   13.840729    6.364264   x
            x    C        51       37.738342   13.841052    6.369848   x
            x    C        52       48.498739   13.840262    6.362088   x
            x    C        53       53.881616   13.840180    6.365372   x
            x    C        54       44.462928   16.170696    6.376990   x
            x    C        55       49.845815   16.170461    6.368012   x
            x    C        56       52.534448   16.170269    6.363011   x
            x    C        57       61.953312   18.500331    6.362068   x
            x    C        58       56.570211   18.500209    6.359458   x
            x    C        59        4.107200   20.830041    6.376063   x
            x    C        60        1.418743   20.830140    6.362399   x
            x    C        61       60.606029   20.830168    6.353214   x
            x    C        62       57.917406   20.830277    6.360090   x
            x    C        63        8.142956   23.159745    6.377578   x
            x    C        64        5.454704   23.159891    6.363734   x
            x    C        65        9.490498   25.489579    6.363211   x
            x    C        66       12.178507   25.489430    6.374058   x
            x    C        67       60.605916   25.490028    6.361451   x
            x    C        68       13.526081   27.819221    6.363213   x
            x    C        69       16.213920   27.819037    6.372383   x
            x    C        70       61.953137   27.819903    6.364693   x
            x    C        71        1.418470   30.149659    6.356815   x
            x    C        72       17.561426   30.148735    6.372780   x
            x    C        73       20.249217   30.148612    6.381742   x
            x    C        74        8.142384   32.479324    6.360727   x
            x    C        75        5.454083   32.479433    6.362030   x
            x    C        76       16.213423   32.478581    6.378470   x
            x    C        77       21.596731   32.478279    6.391855   x
            x    C        78       12.177521   34.808894    6.392610   x
            x    C        79       17.560667   34.808261    6.407547   x
            x    C        80       20.248920   34.808031    6.409909   x
            x    C        81       29.667603   37.138029    6.397175   x
            x    C        82       24.284895   37.138003    6.424531   x
            x    C        83       24.284828    4.519063    6.473745   x
            x    C        84       49.845797    6.849787    6.402822   x
            x    C        85       25.632228    6.849841    6.472038   x
            x    C        86       53.881639    9.179952    6.391925   x
            x    C        87       28.320538   11.510943    6.441011   x
            x    C        88       32.356029   13.840977    6.398371   x
            x    C        89       56.570220   13.840130    6.370043   x
            x    C        90       41.774178   16.170925    6.381501   x
            x    C        91       36.391532   16.171006    6.391299   x
            x    C        92       60.606046   16.170262    6.370065   x
            x    C        93       57.917497   16.170272    6.363575   x
            x    C        94        0.071365   18.500271    6.372167   x
            x    C        95       45.809981   18.500716    6.398141   x
            x    C        96       48.498605   18.500473    6.387898   x
            x    C        97       53.881568   18.500422    6.367159   x
            x    C        98       56.570100   23.160169    6.377255   x
            x    C        99       17.561587   25.489372    6.396985   x
            x    C       100       57.917310   25.490166    6.382414   x
            x    C       101       21.596854   27.818974    6.393740   x
            x    C       102       60.605777   30.149772    6.388528   x
            x    C       103        0.071024   32.479578    6.376495   x
            x    C       104       24.284818   32.478189    6.395723   x
            x    C       105        9.489333   34.809232    6.386364   x
            x    C       106        4.106577   34.809390    6.384075   x
            x    C       107       28.320641   34.808150    6.400135   x
            x    C       108       25.632138   34.807938    6.403541   x
            x    C       109       32.356337   37.138324    6.393929   x
            x    C       110       13.524460   37.138621    6.435067   x
            x    C       111       16.212735   37.138258    6.443374   x
            x    C       112       21.596314   37.137932    6.438224   x
            x    C       113       17.560012    2.188494    6.490151   x
            x    C       114       41.774238    2.189158    6.424740   x
            x    C       115       20.248643    2.188418    6.481860   x
            x    C       116       21.596270    4.518974    6.507409   x
            x    C       117       45.809959    4.519568    6.417268   x
            x    C       118       48.498627    4.519732    6.427386   x
            x    C       119       52.534356    6.849884    6.409202   x
            x    C       120       24.284924    9.180424    6.507786   x
            x    C       121       56.570151    9.180105    6.400475   x
            x    C       122       57.917405   11.510252    6.389445   x
            x    C       123       25.632153   11.511181    6.487624   x
            x    C       124       29.667348   13.841369    6.428033   x
            x    C       125       61.953181   13.840379    6.393735   x
            x    C       126       33.702744   16.171242    6.403932   x
            x    C       127        1.418506   16.170509    6.403090   x
            x    C       128       40.427216   18.500877    6.408701   x
            x    C       129        5.454284   18.500386    6.414118   x
            x    C       130       49.845701   20.830405    6.406927   x
            x    C       131        9.490162   20.830126    6.418477   x
            x    C       132       52.534304   20.830333    6.388455   x
            x    C       133       53.881546   23.160302    6.400470   x
            x    C       134       13.526000   23.159759    6.410227   x
            x    C       135       16.213769   23.159776    6.422809   x
            x    C       136       20.249246   25.489386    6.406254   x
            x    C       137       56.570048   27.820029    6.414412   x
            x    C       138       24.284692   27.819001    6.404486   x
            x    C       139       25.632081   30.148549    6.401589   x
            x    C       140       57.917329   30.149920    6.417235   x
            x    C       141       61.953018   32.479618    6.393934   x
            x    C       142       29.667593   32.478285    6.410154   x
            x    C       143        1.418182   34.809469    6.390770   x
            x    C       144       33.703154   34.808212    6.415898   x
            x    C       145        8.141783   37.139231    6.416204   x
            x    C       146       37.738630   37.138425    6.422034   x
            x    C       147       12.176752    2.188997    6.474272   x
            x    C       148       44.462951    2.189443    6.443449   x
            x    C       149        9.488531    2.189397    6.460484   x
            x    C       150       53.881534    4.519929    6.434993   x
            x    C       151       57.917322    6.850087    6.422035   x
            x    C       152       60.605906   11.510254    6.402815   x
            x    C       153        0.071143   13.840477    6.413427   x
            x    C       154       28.320252   16.171184    6.447802   x
            x    C       155        4.106744   16.170569    6.429226   x
            x    C       156       37.738486   18.500973    6.413052   x
            x    C       157       32.355895   18.500887    6.425850   x
            x    C       158        8.142427   18.500438    6.441846   x
            x    C       159       44.462836   20.830454    6.433245   x
            x    C       160       12.178132   20.830148    6.440012   x
            x    C       161       41.774205   20.830544    6.439785   x
            x    C       162       21.596705   23.159947    6.436516   x
            x    C       163       25.631913   25.489537    6.424491   x
            x    C       164       28.320343   30.148762    6.413506   x
            x    C       165       32.356209   32.478551    6.424451   x
            x    C       166       60.605727   34.809670    6.418833   x
            x    C       167       36.391860   34.808512    6.436426   x
            x    C       168        5.453574   37.139387    6.411844   x
            x    C       169        0.070863   37.139476    6.414626   x
            x    C       170       40.427372   37.138834    6.445839   x
            x    C       171       49.845759    2.189789    6.462331   x
            x    C       172        4.106258    2.189758    6.438368   x
            x    C       173        1.417979    2.189711    6.433875   x
            x    C       174       52.534313    2.190011    6.459149   x
            x    C       175       60.605703    2.190004    6.436293   x
            x    C       176       57.917279    2.189912    6.443932   x
            x    C       177       16.212270    4.518826    6.534811   x
            x    C       178       13.523722    4.519095    6.525924   x
            x    C       179       56.570053    4.520070    6.434635   x
            x    C       180       61.952897    4.520000    6.438903   x
            x    C       181       60.605758    6.850179    6.430369   x
            x    C       182       20.248703    6.849484    6.551712   x
            x    C       183       61.953031    9.180275    6.426717   x
            x    C       184        0.070864    9.180420    6.445383   x
            x    C       185       21.596423    9.180512    6.553202   x
            x    C       186        1.418075   11.510573    6.445581   x
            x    C       187        5.453599   13.840787    6.473030   x
            x    C       188       24.284779   13.841452    6.508022   x
            x    C       189        9.489252   16.170901    6.494817   x
            x    C       190       25.631906   16.171470    6.480385   x
            x    C       191       29.667262   18.500998    6.440670   x
            x    C       192       13.525250   18.500835    6.493899   x
            x    C       193       24.284509   18.501173    6.479218   x
            x    C       194       17.561164   20.830400    6.467412   x
[...]
 C   414 -- C   450       -0.08     -0.00      5.38409
 C   123 -- C   225       -0.08     -0.00      5.38416
 C    85 -- C   182       -0.08     -0.00      5.38425
 C   339 -- C   376       -0.08     -0.00      5.38430
 C   116 -- C   177       -0.08     -0.00      5.38435
 C   296 -- C   349       -0.08     -0.00      5.38445
 C   360 -- C   393       -0.08     -0.00      5.38451
 C   185 -- C   250       -0.08      0.00      5.38461
 C   452 -- C   480       -0.08      0.00      5.38507
 C   320 -- C   321       -0.08      0.00      5.38511
 C   271 -- C   295       -0.08      0.00      5.38526
 C   387 -- C   414       -0.08      0.00      5.38532
 C   502 -- C   509       -0.08     -0.00      5.38553
 C   489 -- C   507       -0.08      0.00      5.38590
 C   426 -- C   463       -0.08     -0.00      5.38605
 C   490 -- C   491       -0.08      0.00      5.38621
 C   327 -- C   375       -0.08     -0.00      5.38622
 C   395 -- C   429       -0.08      0.00      5.38634
 C   453 -- C   455       -0.08      0.00      5.38661
 C   336 -- C   367       -0.08     -0.00      5.38680
 C   372 -- C   402       -0.08     -0.00      5.38717
 C   293 -- C   373       -0.08      0.00      5.38723
 C   307 -- C   451       -0.08     -0.00      5.38783
 C   423 -- C   461       -0.08      0.00      5.38814
 C   301 -- C   387       -0.08     -0.00      5.38820
 C   472 -- C   501       -0.08     -0.00      5.38827
 C   280 -- C   282       -0.08     -0.00      5.38828
 C   282 -- C   284       -0.08     -0.00      5.38831
 C   362 -- C   364       -0.08      0.00      5.38840
 C   378 -- C   472       -0.08     -0.00      5.38872
 C   363 -- C   394       -0.08      0.00      5.38904
 C   459 -- C   462       -0.08      0.00      5.38919
 C   392 -- C   425       -0.08     -0.00      5.38940
 C   493 -- C   502       -0.08     -0.00      5.39095
 C   292 -- C   337       -0.08     -0.00      5.39101
 C   269 -- C   272       -0.08     -0.00      5.39122
 C   325 -- C   327       -0.08     -0.00      5.39161
 C   326 -- C   367       -0.08     -0.00      5.39195
 C   454 -- C   479       -0.08      0.00      5.39196
 C   319 -- C   366       -0.08      0.00      5.39217
 C   302 -- C   477       -0.08     -0.00      5.39225
 C   279 -- C   330       -0.08      0.00      5.39256
 C   439 -- C   508       -0.08     -0.00      5.39262
 C   451 -- C   478       -0.08     -0.00      5.39268
 C   510 -- C   521       -0.08      0.00      5.39268
 C   270 -- C   273       -0.08     -0.00      5.39272
 C   405 -- C   500       -0.08     -0.00      5.39302
 C   332 -- C   334       -0.08     -0.00      5.39503
 C   350 -- C   475       -0.08     -0.00      5.39585
 C   333 -- C   335       -0.08      0.00      5.39679
 C   515 -- C   516       -0.08      0.00      5.39710
 C   338 -- C   499       -0.07     -0.00      5.39741
 C   404 -- C   411       -0.07      0.00      5.39994
 C   401 -- C   507       -0.07     -0.00      5.40110
 C   295 -- C   450       -0.07     -0.00      5.40133
 C   500 -- C   515       -0.08     -0.00      5.40196
 C   270 -- C   335       -0.08     -0.00      5.40208
 C   272 -- C   350       -0.08     -0.00      5.40338
 C   334 -- C   439       -0.08     -0.00      5.40346
 C   341 -- C   471       -0.07      0.00      5.40482
 C   295 -- C   377       -0.07     -0.00      5.40553
 C   477 -- C   510       -0.08     -0.00      5.40661
 C   292 -- C   330       -0.08     -0.00      5.40669
 C   337 -- C   471       -0.07     -0.00      5.40817
 C   302 -- C   341       -0.07     -0.00      5.40840
 C   507 -- C   522       -0.07     -0.00      5.40852
 C   279 -- C   341       -0.07      0.00      5.40852
 C   333 -- C   404       -0.07      0.00      5.40907
 C   332 -- C   338       -0.07     -0.00      5.40941
 C   273 -- C   411       -0.07     -0.00      5.41013
 C   475 -- C   499       -0.07     -0.00      5.41033
 C   411 -- C   516       -0.07      0.00      5.41080
 C   471 -- C   521       -0.07      0.00      5.41137
 C   377 -- C   401       -0.07     -0.00      5.41163
 C   269 -- C   338       -0.07     -0.00      5.41166
 C   404 -- C   405       -0.07     -0.00      5.41218
 C   450 -- C   522       -0.07     -0.00      5.41253
 C   499 -- C   508       -0.07     -0.00      5.41398
 Li    7 -- C   350       -0.03      0.00      5.61098
 Li    7 -- C   272       -0.03      0.00      5.64547
=============================================================


============== Orbital energy and occupancy information for spin 1 =============

      Total number of orbitals:    2108
        Occupancy sum (kernel):    1038.449835912
   Occupancy sum (eigenvalues):    1038.449835912
                 HOMO-LUMO gap:       0.006595077 Eh
                 Mid-gap level:      -0.157208637 Eh

                        Orbital | Energy (Eh) | Occupancy
                            1    -1.961649020   1.0000000
                        .......   ...........   .........
                         1030    -0.190117622   0.9994644
                         1031    -0.190057940   0.9994556
                         1032    -0.189996135   0.9994465
                         1033    -0.189963382   0.9994416
                         1034    -0.188872957   0.9992492
                         1035    -0.188845260   0.9992436
                         1036    -0.185990233   0.9983264
                         1037    -0.172979539   0.9462383
                         1038    -0.172878243   0.9448188
                         1039    -0.160506176   0.3669465
                        ....... -- gap at 0K -- .........
                         1040    -0.153911099   0.0886682
                         1041    -0.153791076   0.0859669
                         1042    -0.145411559   0.0094977
                         1043    -0.144014610   0.0065024
                         1044    -0.142707905   0.0045874
                         1045    -0.136366716   0.0008235
                         1046    -0.135361330   0.0006255
                         1047    -0.134765757   0.0005321
                         1048    -0.129205371   0.0001179
                         1049    -0.127587127   0.0000757
                        .......   ...........   .........
                         2108     0.757521662   0.0000000

================================================================================

============== Orbital energy and occupancy information for spin 2 =============

      Total number of orbitals:    2108
        Occupancy sum (kernel):    1040.092472009
   Occupancy sum (eigenvalues):    1040.092472009
                 HOMO-LUMO gap:       0.018396634 Eh
                 Mid-gap level:      -0.163690022 Eh

                        Orbital | Energy (Eh) | Occupancy
                            1    -1.964403906   1.0000000
                        .......   ...........   .........
                         1031    -0.190065546   0.9994567
                         1032    -0.190011387   0.9994488
                         1033    -0.189981517   0.9994443
                         1034    -0.189061052   0.9992815
                         1035    -0.188859446   0.9992465
                         1036    -0.188521471   0.9991648
                         1037    -0.185570765   0.9981330
                         1038    -0.183344216   0.9965411
                         1039    -0.172988940   0.9463681
                         1040    -0.172888339   0.9449613
                        ....... -- gap at 0K -- .........
                         1041    -0.154491705   0.1023477
                         1042    -0.154118307   0.0932071
                         1043    -0.144884110   0.0082079
                         1044    -0.142866218   0.0047885
                         1045    -0.137202896   0.0010291
                         1046    -0.136208626   0.0007859
                         1047    -0.135031623   0.0005746
                         1048    -0.129236994   0.0001189
                         1049    -0.127711467   0.0000783
                         1050    -0.125295173   0.0000408
                        .......   ...........   .........
                         2108     0.757521677   0.0000000

================================================================================

===================== Writing canonical molecular orbitals =====================
    Spin 1
| Orbital  Energy (eV)  Norm     |
| HOMO-5   -5.13949467  1.000000 | 
| HOMO-4   -5.13874101  1.000000 | 
| HOMO-3   -5.06105176  1.000000 | 
| HOMO-2   -4.70701275  1.000000 | 
| HOMO-1   -4.70425637  1.000000 | 
| HOMO     -4.36759528  1.000000 | 
| LUMO     -4.18813412  1.000000 | 
| LUMO+1   -4.18486812  1.000000 | 
| LUMO+2   -3.95684986  1.000000 | 
| LUMO+3   -3.91883695  1.000000 | 
| LUMO+4   -3.88327968  1.000000 | 
| LUMO+5   -3.71072716  1.000000 | 
================================================================================

===================== Writing canonical molecular orbitals =====================
    Spin 2
| Orbital  Energy (eV)  Norm     |
| HOMO-5   -5.13912702  1.000000 | 
| HOMO-4   -5.12993025  1.000000 | 
| HOMO-3   -5.04963747  1.000000 | 
| HOMO-2   -4.98904997  1.000000 | 
| HOMO-1   -4.70726857  1.000000 | 
| HOMO     -4.70453108  1.000000 | 
| LUMO     -4.20393320  1.000000 | 
| LUMO+1   -4.19377253  1.000000 | 
| LUMO+2   -3.94249725  1.000000 | 
| LUMO+3   -3.88758760  1.000000 | 
| LUMO+4   -3.73348078  1.000000 | 
| LUMO+5   -3.70642531  1.000000 | 
================================================================================
 
=============== Density of States (DOS) calculation for UP spin ================
Writing "graphite_UP_DOS.txt" ... done
================================================================================
 
============== Density of States (DOS) calculation for DOWN spin ===============
Writing "graphite_DN_DOS.txt" ... done
================================================================================
 
Writing bands to file "graphite.val_bands" ... done

IS: Calculating electrolyte contribution to the atomic forces ...
================================================================================
 
***********************************************************
********** Summary of Forces (values in Eh/a) *************
*                                                         *
* ---------------------- Minimum ------------------------ *
* Atom:       220, |F|min =    0.00000426                 *
* Components:     Fx|min       Fy|min       Fz|min        *
*              -0.00000189   0.00000345  -0.00000162      *
*                                                         *
* ---------------------- Maximum ------------------------ *
* Atom:         9, |F|max =    0.00088584                 *
* Components:     Fx|max       Fy|max       Fz|max        *
*              -0.00055073  -0.00064514  -0.00025532      *
*                                                         *
* ---------------- Root Mean Square Force --------------- *
*                  |F|rms =    0.00012904                 *
* Components:     Fx|rms       Fy|rms       Fz|rms        *
*               0.00006407   0.00007954   0.00007887      *
***********************************************************
 

                                                      hartree           kcal/mol
IS: NB: Energy of pure electrolyte:         -0.07859175570546         -49.317070

------------------------------ TIMING INFORMATION ------------------------------
AVERAGE TIME:   19826.929s on    128 proc(s)                                    
TOTAL TIME:     19826.934s on    128 proc(s)                                    
================= AVERAGE TIMINGS FROM ALL PROCS (CUMULATIVE) ==================
|| TAG                                    #calls    cpu time   %total  Gflops ||
|| linalg_invert_sym_matrix             :     4        0.00s   0.000%  ------ || (1 procs only)
|| density_fftbox_interp_mult_imbal     : 31720        0.00s   0.000%  ------ ||
|| sparse_set_to_garbage                :   300        0.01s   0.000%  ------ ||
|| onetep.F90 main loop imbalance       :     1        0.02s   0.000%  ------ ||
|| onetep.F90 final imbalance           :     1        0.03s   0.000%  ------ ||
|| ngwfs_initialise_from_radial         :     1        0.03s   0.000%  ------ ||
|| ewald_calculate_forces_realspace     :    13        0.06s   0.000%  ------ ||
|| vdwcorrection_calculate_forces       :    13        0.07s   0.000%  ------ ||
|| vdwcorrection_calculate_energy       :    13        0.10s   0.001%  ------ ||
|| basis_extract_function_from_box      :  2042        0.15s   0.001%  ------ ||
|| pseudopotentials_core_density        :    13        0.25s   0.001%  ------ ||
|| pseudopotentials_local_on_grid       :    13        0.25s   0.001%  ------ ||
|| sparse_spam3toblacs_real_fast_imbal  :  2979        0.30s   0.001%  ------ ||
|| parallel_prepare_fd_halos_alloc      : 63687        0.35s   0.002%  ------ ||
|| pseudopotentials_nonlocal_mat        :    44        0.38s   0.002%  ------ ||
|| restart_hamiltonian_read             :    12        0.47s   0.002%  ------ ||
|| parallel_prepare_fd_halos_request    : 63687        0.60s   0.003%  ------ ||
|| sparse_blacstospam3_real_fast_imbal  :  2942        0.92s   0.005%  ------ ||
|| restart_hamiltonian_write            :    28        1.23s   0.006%  ------ ||
|| smeared_ion_generate_potential_PBC   :    13        1.57s   0.008%  ------ ||
|| pseudo_make_structure_factor         :    13        1.59s   0.008%  ------ ||
|| sparse_spam3toblacs_real_fast_B2     : 381.3k       2.11s   0.011%  ------ ||
|| energy_and_force_init_cell           :     1        2.45s   0.012%  ------ ||
|| parallel_prepare_fd_halos_satisfy    : 63687        2.97s   0.015%  ------ ||
|| sparse_init                          :    13        3.68s   0.019%  ------ ||
|| eigenstates_calculate                :     1        3.88s   0.020%  ------ ||
|| ngwf_gradient_coeffs                 :    28        4.28s   0.022%  ------ ||
|| restart_kernel_write                 :    41        5.49s   0.028%  ------ ||
|| pseudo_local_calculate_forces        :    13        6.31s   0.032%  ------ ||
|| ewald_calculate_energy               :    13        7.06s   0.036%  ------ ||
|| integrals_grad_spam3                 :    13        8.04s   0.041%  ------ ||
|| nonsc_forces_ngwfs_calc              :    13        8.08s   0.041%  ------ ||
|| density_init_guess_real              :    13        8.12s   0.041%  ------ ||
|| sparse_embed_hotelling_invert_embed  :    44        8.95s   0.045%  ------ ||
|| pseudo_nlcc_calculate_forces         :    13        9.97s   0.050%  ------ ||
|| projectors_func_grad_ovlp_box_spam3  :    39       11.59s   0.058%  ------ ||
|| projectors_func_ovlp_box_spam3       :    44       12.33s   0.062%  ------ ||
|| pseudo_nl_calculate_forces           :    13       12.86s   0.065%  ------ ||
|| fourier_filter_cell                  :   614       16.23s   0.082% 210.845 ||
|| restart_ngwfs_tightbox_input         :    12       18.15s   0.092%  ------ ||
|| sparse_trace                         : 11136       18.89s   0.095%  ------ ||
|| projectors_init_fftbox_recip         :   195       18.90s   0.095%  ------ ||
|| fourier_apply_box_pair               :  2316       22.11s   0.112%  1.691k ||
|| ewald_calculate_forces_recipspace    :    13       22.55s   0.114%  ------ ||
|| ewald_calculate_forces               :    13       22.74s   0.115%  ------ ||
|| boltzmann_init_steric_pot            :    13       22.77s   0.115%  ------ ||
|| parallel_prepare_fd_halos_comms_imbal: 63687       25.08s   0.126%  ------ ||
|| parallel_prepare_fd_halos_clear      : 63687       25.74s   0.130%  ------ ||
|| properties_calculate                 :     1       26.31s   0.133%  ------ ||
|| function_ops_brappd_ketppd_spam3     :    75       28.20s   0.142%  ------ ||
|| basis_copy_function_to_box           : 37021       33.86s   0.171%  ------ ||
|| parallel_prepare_fd_halos_comms_wait : 63687       43.15s   0.218%  ------ ||
|| integrals_kinetic_spam3              :    44       43.61s   0.220%  ------ ||
|| projectors_gradient_batch            :   112       52.97s   0.267%  ------ ||
|| fourier_interpolate_cell             :  1586       64.72s   0.326% 136.548 ||
|| sparse_product                       :  6238       70.17s   0.354%  ------ ||
|| sparse_spam3toblacs_real_fast_B1     : 381.3k      97.91s   0.494%  ------ ||
|| parallel_prepare_fd_halos            : 63687       98.25s   0.496%  ------ ||
|| sparse_spam3toblacs_real_fast        :  2979      104.78s   0.528%  ------ ||
|| fourier_apply_cell_backward          :  6565      105.37s   0.531% 175.214 ||
|| basis_dot_function_with_box          : 5.926M     109.02s   0.550%  ------ ||
|| cell_grid_extract_box_real           : 12280      147.07s   0.742%  ------ ||
|| sparse_blacstospam3_real_fast        :  2942      185.40s   0.935%  ------ ||
|| restart_ngwfs_tightbox_output        :    23      208.69s   1.053%  ------ ||
|| xc_energy_potential                  :   806      238.44s   1.203%  ------ ||
|| fourier_apply_cell_forward           :  6513      246.25s   1.242%  74.378 ||
|| finite_difference_derivative         : 63687      292.05s   1.473%  ------ ||
|| ngwf_gradient_build_batch            :   112      306.96s   1.548%  ------ ||
|| cell_grid_deposit_box_real           : 32330      331.69s   1.673%  ------ ||
|| basis_add_function_to_box            : 18.33M     347.97s   1.755%  ------ ||
|| dense_eigensolve                     :  1442      384.12s   1.937%  ------ ||
|| hamiltonian_energy_components        :    15      475.41s   2.398%  ------ ||
|| edft_diag_ngwf_ham                   :  1440      484.12s   2.442%  ------ ||
|| ngwf_gradient_batch                  :   112      515.35s   2.599%  ------ ||
|| ngwf_gradient_lnv                    :    28      543.01s   2.739%  ------ ||
|| implicit_solvent_boltzmann_forces    :    13      595.98s   3.006%  ------ ||
|| integrals_locpot_mat_els_batch       :  1116      598.23s   3.017%  ------ ||
|| edft_apply_smearing_operator         :   720      748.19s   3.774%  ------ ||
|| density_batch_row_sums               :  3172     1090.13s   5.498%  ------ ||
|| smeared_ion_force_correction         :    26     1176.42s   5.933%  ------ ||
|| implicit_solvent_soft_sphere_forces  :    13     1247.42s   6.292%  ------ ||
|| density_fftbox_deposit_to_cell       : 31720     1362.85s   6.874%  ------ ||
|| potential_apply_to_ngwf_batch        :  1116     1956.52s   9.868%  ------ ||
|| dl_mg_solver_calls                   :   793     2332.57s  11.765%  ------ ||
|| multigrid_calculate_hartree          :   793     2413.15s  12.171%  ------ ||
|| integrals_locpot_dbl_grid            :   558     2557.84s  12.901%  ------ ||
|| fourier_apply_box                    : 78580     2855.07s  14.400%  2.166k ||
|| forces_calculate                     :    13     3201.49s  16.147%  ------ ||
|| density_fftbox_interpolate_multiply  : 31720     3453.05s  17.416%  ------ ||
|| density_batch_interp_deposit         :  3172     6164.52s  31.092%  ------ ||
|| density_on_dbl_grid                  :  1586     7651.90s  38.593%  ------ ||
|| hamiltonian_lhxc_calculate           :   765    10208.98s  51.490%  ------ ||
|| edft_calculate                       :    28    12951.87s  65.325%  ------ ||
|| ngwf_cg_optimise                     :    13    14495.44s  73.110%  ------ ||
|| energy_and_forces                    :    13    19750.56s  99.615%  ------ ||
|| total_time                           :     1    19826.93s 100.000%  ------ ||
================================================================================
Overhead of generating timer report: 
- 0 ms averaging over threads,
- 27 ms ensuring consistency across MPI ranks,
- 45 ms printing in order.

Job completed: 23-10-2023 15:14 (+0100)

onetep_launcher: ONETEP seems to have finished correctly (zero exit code).
