1119      
Geometry optimisation iteration:    52 | Lattice="34.1692 0.0000 0.0000  0.0000 39.4552 0.0000  0.0000 0.0000 100.0000"
C    22.104693    1.165669    3.408063
C    26.375665    1.165860    3.360761
C    30.647267    1.165967    3.335168
C     6.444771    1.165631    3.342078
C    10.715918    1.165577    3.374978
C     2.173627    1.165895    3.331318
C    14.986664    1.165594    3.415703
C    19.257561    1.165732    3.425169
C    23.528599    1.165755    3.392627
C    27.799759    1.165904    3.348214
C    32.071381    1.166029    3.331956
C     0.749573    1.165940    3.330996
C     5.020901    1.165649    3.337160
C     9.292039    1.165552    3.361738
C    13.562911    1.165700    3.404671
C    17.833870    1.165708    3.427131
C    15.698342    2.398672    3.427816
C    19.969243    2.398620    3.430259
C    24.240113    2.398853    3.389895
C     4.309123    2.398880    3.330010
C    28.511514    2.399111    3.342817
C     0.037931    2.399153    3.325085
C     8.580231    2.398755    3.354753
C    12.851326    2.398657    3.403159
C    17.122095    2.398665    3.432907
C    21.393051    2.398829    3.420661
C    25.664160    2.399005    3.371330
C    29.935674    2.399119    3.333889
C    32.783093    2.399193    3.326517
C     2.885167    2.398971    3.327439
C     7.156255    2.398709    3.343762
C    11.427508    2.398738    3.386874
C    13.562954    3.631656    3.422521
C    17.833760    3.631443    3.445440
C     2.173379    3.632048    3.322220
C    22.104681    3.631713    3.425993
C    26.375905    3.632137    3.370492
C     6.444452    3.631920    3.338996
C    10.715662    3.631791    3.386655
C    14.986723    3.631536    3.434327
C    19.257476    3.631634    3.443291
C    23.528625    3.631995    3.409388
C    27.799977    3.632220    3.352412
C    30.647385    3.632258    3.329995
C     0.749469    3.632202    3.321524
C     5.020535    3.631921    3.330996
C    32.071421    3.632237    3.324159
C     9.291782    3.631812    3.368121
C     0.037652    4.864976    3.319108
C    11.427356    4.864537    3.409385
C    15.698327    4.864138    3.451626
C    19.969192    4.864185    3.453287
C    24.240457    4.864763    3.414198
C     4.308699    4.864817    3.327277
C     8.579774    4.864690    3.366931
C    12.851078    4.864321    3.427533
C    17.122018    4.864103    3.455988
C    21.392973    4.864524    3.444501
C    25.664445    4.865058    3.392632
C    28.511802    4.865099    3.352020
C    29.935722    4.865124    3.336827
C    32.783034    4.865072    3.321855
C     2.884870    4.864812    3.322386
C     7.155918    4.864776    3.349698
C     9.291346    6.097269    3.388198
C    13.562727    6.096734    3.447369
C    17.833689    6.096485    3.466798
C    22.104898    6.097041    3.451315
C    32.071256    6.097777    3.326536
C     2.173052    6.097528    3.320797
C     6.443995    6.097471    3.347732
C    10.715086    6.097031    3.410625
C    14.986482    6.096606    3.457905
C    19.257336    6.096678    3.465031
C    23.528840    6.097452    3.436730
C    26.376359    6.097716    3.396250
C    27.800202    6.097900    3.372813
C    30.647477    6.097789    3.337256
C     0.749272    6.097594    3.319695
C     5.020176    6.097458    3.334825
C     7.155491    7.330071    3.365484
C    11.426722    7.329412    3.431437
C    15.698016    7.328929    3.467492
C    19.969275    7.329143    3.469099
C    29.935833    7.330571    3.355033
C     0.037495    7.330387    3.323546
C     4.308418    7.330209    3.334540
C     8.579220    7.329851    3.387008
C    12.850476    7.329125    3.448067
C    17.121835    7.329009    3.470583
C    21.393136    7.329590    3.463285
C    25.664756    7.330408    3.421527
C    24.240749    7.330089    3.440862
C    28.512068    7.330516    3.376213
C    32.782915    7.330429    3.329149
C     2.884607    7.330201    3.326938
C     5.019910    8.563128    3.349556
C     9.290666    8.562605    3.408172
C    13.561958    8.561714    3.456597
C    17.833517    8.561657    3.468781
C    27.800518    8.563451    3.402830
C    32.071283    8.563508    3.344077
C     2.172935    8.563307    3.331229
C     6.443622    8.563015    3.365713
C    10.714454    8.562176    3.427867
C    23.529122    8.562921    3.453812
C    14.985932    8.561692    3.463825
C    19.257519    8.561937    3.467922
C    22.105088    8.562393    3.462120
C    26.376608    8.563213    3.424640
C    30.647481    8.563406    3.360267
C     0.749070    8.563292    3.330387
C     7.154962    9.796098    3.387087
C    11.425796    9.795077    3.437218
C    15.697368    9.794653    3.455755
C    25.665018    9.796334    3.440243
C    29.935976    9.796641    3.386328
C     0.037474    9.796683    3.343592
C     4.308263    9.796416    3.354604
C    21.393499    9.795437    3.456001
C     8.578677    9.795714    3.405866
C    12.849759    9.794839    3.446957
C    17.121718    9.794850    3.456451
C    19.969395    9.794965    3.456520
C    24.240973    9.795955    3.450175
C    28.512168    9.796439    3.407499
C    32.782806    9.796596    3.352686
C     2.884443    9.796483    3.345549
C     5.019591   11.029649    3.376302
C     9.290005   11.028755    3.419406
C    13.561132   11.027797    3.435945
C    23.529471   11.029153    3.442382
C    27.800601   11.029699    3.427051
C    19.257742   11.028222    3.433282
C    32.071244   11.029849    3.376872
C     2.172841   11.029790    3.358134
C     6.443203   11.029362    3.390707
C    10.713821   11.028357    3.428582
C    14.985364   11.027965    3.435522
C    17.833366   11.027888    3.432840
C    22.105421   11.028644    3.439845
C    26.376724   11.029450    3.438017
C    30.647451   11.029683    3.394180
C     0.748946   11.029853    3.358211
C    32.782698   12.262745    3.389544
C     2.884298   12.262796    3.379448
C     7.154536   12.262333    3.408999
C    21.393847   12.261607    3.408774
C    11.425130   12.261214    3.421046
C    17.121505   12.261014    3.400753
C    25.665191   12.262582    3.433680
C    29.935880   12.262775    3.417274
C     0.037298   12.262867    3.379835
C     4.307925   12.262624    3.387053
C     8.578135   12.261941    3.417258
C    12.849086   12.261124    3.416525
C    15.696992   12.260850    3.404909
C    19.969563   12.261229    3.401581
C    24.241326   12.262210    3.427912
C    28.512212   12.262532    3.429083
C    30.647414   13.495375    3.424114
C     0.748967   13.495521    3.397791
C    19.257765   13.493870    3.359671
C     5.019315   13.495441    3.407745
C     9.289392   13.494644    3.417115
C    23.529768   13.494897    3.396592
C    27.800687   13.495588    3.432181
C    32.071023   13.495546    3.413156
C     2.172694   13.495491    3.396784
C     6.442762   13.495162    3.413808
C    10.713132   13.494353    3.410374
C    13.560579   13.493780    3.385290
C    17.833204   13.493754    3.359552
C    22.105869   13.494521    3.379887
C    14.984861   13.493871    3.373952
C    26.377041   13.495294    3.426195
C    17.121116   14.726540    3.322943
C    28.512335   14.728153    3.432020
C    32.782696   14.728096    3.423787
C     2.884279   14.728161    3.415331
C     7.153958   14.727881    3.420206
C    21.394138   14.726925    3.335948
C    25.665581   14.728044    3.402620
C    29.935879   14.728287    3.434297
C     0.037277   14.728175    3.417161
C     4.307820   14.728016    3.417775
C     8.577522   14.727634    3.414599
C    11.424571   14.726935    3.386130
C    12.848465   14.726832    3.365564
C    15.696530   14.726504    3.332641
C    19.969699   14.726704    3.322862
C    24.241907   14.727695    3.379443
C    26.377460   15.960907    3.397757
C    30.647346   15.961031    3.437885
C     0.749066   15.960984    3.428847
C     5.019106   15.960957    3.427266
C    14.984350   15.959716    3.308843
C    19.257850   15.959527    3.286184
C    23.530303   15.960320    3.341113
C    27.801098   15.961169    3.419451
C    32.071079   15.961025    3.436174
C     2.172866   15.960995    3.427029
C     6.442481   15.960800    3.423159
C     9.288766   15.960430    3.399641
C    10.712502   15.960319    3.378780
C    13.560066   15.959775    3.329487
C    17.833047   15.959535    3.285931
C    22.106186   15.960073    3.314446
C    24.242384   17.193618    3.336500
C    28.512535   17.194206    3.420543
C    32.782718   17.194164    3.440379
C     2.884418   17.194190    3.434761
C    12.848054   17.193487    3.322468
C    17.121007   17.193061    3.264259
C    21.394430   17.193123    3.280708
C    25.666231   17.193952    3.368195
C    29.936127   17.194305    3.434398
C     0.037493   17.194195    3.437694
C     4.307898   17.194160    3.432077
C     8.577035   17.193931    3.399543
C     7.153486   17.194090    3.416546
C    11.424004   17.193529    3.350117
C    15.696199   17.193141    3.276524
C    19.969773   17.193024    3.264817
C    22.106339   18.426740    3.278390
C    26.377995   18.427304    3.370995
C    30.647449   18.427624    3.435809
C     0.749198   18.427612    3.440226
C    10.712181   18.427339    3.352198
C    14.984278   18.427046    3.272232
C    19.257893   18.426738    3.245953
C    23.530642   18.426894    3.307536
C    27.801587   18.427503    3.400063
C     6.442204   18.427536    3.418625
C    32.071257   18.427531    3.440935
C     2.173045   18.427620    3.438013
C     5.018906   18.427617    3.430056
C     9.288343   18.427352    3.379164
C    13.559795   18.427107    3.295938
C    17.832981   18.426740    3.245004
C    24.242647   19.660387    3.315197
C    28.512870   19.660784    3.404081
C    32.782806   19.660930    3.439811
C     8.576713   19.660798    3.384705
C    12.848113   19.660847    3.303187
C    17.120971   19.660624    3.243151
C    21.394456   19.660312    3.261507
C     4.307730   19.660967    3.430874
C    25.666627   19.660520    3.345814
C    29.936324   19.660821    3.424014
C     0.037583   19.660924    3.439635
C     2.884366   19.661007    3.436348
C     7.153223   19.660854    3.406023
C    11.423955   19.660795    3.331128
C    15.696197   19.660743    3.256209
C    19.969840   19.660364    3.245229
C    10.000967    4.860109    6.687973
C     7.152837    4.861697    6.649396
C     7.863529    6.093253    6.666059
C     9.286797    6.092171    6.687176
C    27.109941   14.722513    6.733037
C    24.267529   14.717225    6.678394
C    24.984032   15.952364    6.668287
C    26.406252   15.954945    6.700660
C     7.866265    3.629408    6.651674
C     9.290059    3.628547    6.666836
C    11.422594    7.321262    6.733172
C     9.998462    7.323898    6.710110
C     7.151117    7.325552    6.665066
C     7.862485    8.558131    6.686528
C     9.285018    8.556218    6.707667
C    24.974545   13.487070    6.723714
C    26.395914   13.489996    6.739750
C    28.536377   17.192060    6.731596
C    27.117761   17.189770    6.700278
C    24.275915   17.183870    6.624061
C    24.990852   18.424618    6.620891
C    26.414770   18.425830    6.665755
C     7.869621    1.166447    6.649112
C     9.292880    1.165980    6.658614
C    12.140391    1.164792    6.685910
C     5.021814    1.167578    6.635777
C    33.498047    1.168029    6.630501
C     3.598288    1.167724    6.633072
C    16.412099    1.166422    6.719264
C     0.751774    1.167667    6.629854
C    13.563801    1.164604    6.699152
C    17.835396    1.166600    6.722064
C    20.684615    1.167344    6.713042
C    29.227729    1.167400    6.639105
C    30.651352    1.167469    6.633806
C    24.957451    1.167472    6.671189
C    22.108711    1.167713    6.700754
C    26.380995    1.166976    6.657004
C    10.003604    2.396511    6.668350
C     7.155918    2.398316    6.642769
C     5.732885    2.399019    6.635809
C    14.276329    2.395963    6.715535
C     2.886979    2.399698    6.627526
C    11.427661    2.395944    6.683975
C    31.363622    2.399548    6.629460
C     1.463751    2.399789    6.626536
C    18.548540    2.397684    6.732268
C    32.786597    2.399292    6.626533
C    15.699661    2.395756    6.725734
C    22.820296    2.398673    6.701836
C    27.092690    2.398948    6.653099
C    19.972377    2.398045    6.726724
C    28.517112    2.398680    6.641422
C    24.243649    2.398978    6.684212
C    12.139323    3.627293    6.706049
C    33.499288    3.632075    6.623582
C     3.597865    3.631272    6.627173
C    16.413530    3.626875    6.745000
C    20.684244    3.629009    6.737355
C    30.652715    3.630364    6.630450
C     0.752845    3.631314    6.622689
C     5.020176    3.631178    6.631526
C    13.563470    3.626141    6.723040
C    17.836704    3.627187    6.747195
C    29.228526    3.630510    6.639221
C    24.956818    3.630225    6.686979
C    22.108026    3.629767    6.723725
C    26.380145    3.630840    6.667296
C    27.093025    4.862081    6.670260
C    31.365415    4.862992    6.629123
C     1.464096    4.863858    6.622163
C    14.276938    4.857216    6.747095
C    18.549888    4.857815    6.762571
C    22.821203    4.860964    6.733284
C    28.517213    4.862705    6.651429
C    32.788141    4.862541    6.623490
C     2.886824    4.863340    6.624229
C    11.425235    4.858605    6.710202
C    15.700769    4.856662    6.756937
C    19.972948    4.858517    6.757278
C    24.244263    4.862210    6.713313
C     5.730690    4.862297    6.637757
C    24.957905    6.093733    6.721501
C    29.229976    6.094741    6.653983
C    33.500409    6.095839    6.624022
C    16.414440    6.087039    6.771891
C    20.686695    6.089564    6.767565
C    26.381357    6.095019    6.697060
C    30.653514    6.094767    6.638478
C     0.753971    6.095463    6.621982
C    17.837566    6.087390    6.773677
C    22.110238    6.090955    6.756757
C     3.597018    6.095241    6.628624
C    12.137987    6.090129    6.735247
C    13.562641    6.087961    6.753072
C     5.018664    6.094552    6.636127
C    24.247509    7.324930    6.748934
C    22.824037    7.322982    6.763930
C    27.094655    7.327371    6.703790
C    31.366730    7.327817    6.642021
C    18.552696    7.317517    6.777653
C    28.518421    7.327916    6.678494
C    32.789229    7.328552    6.631419
C    15.700715    7.317160    6.772170
C    19.975652    7.318609    6.775522
C     1.464201    7.328407    6.626310
C    14.275264    7.317820    6.766510
C     2.886949    7.327407    6.629324
C     5.729642    7.326421    6.649058
C    24.961155    8.558262    6.754606
C    29.231387    8.561463    6.685355
C    22.114397    8.552644    6.771076
C    26.384787    8.559503    6.733916
C    20.691130    8.550009    6.771580
C    33.500988    8.561485    6.637608
C    16.416087    8.544813    6.765398
C    30.654774    8.561827    6.663231
C    17.839703    8.546428    6.767209
C     3.597276    8.560137    6.640718
C     0.754427    8.562111    6.632899
C    13.557790    8.546182    6.760610
C    12.134493    8.551740    6.746249
C     5.018981    8.558898    6.650961
C    27.098016    9.793454    6.738683
C    24.252447    9.788947    6.765812
C    22.829065    9.785186    6.768052
C    28.521676    9.794217    6.715831
C    18.555509    9.777374    6.744330
C    31.366752    9.795292    6.671893
C    19.981014    9.778925    6.748343
C    32.789243    9.796209    6.655735
C    15.701109    9.776737    6.736905
C     1.465039    9.794663    6.644662
C    14.269857    9.778228    6.743887
C     2.887588    9.793554    6.647886
C     5.729914    9.792324    6.671598
C     9.996443    9.788273    6.724644
C    11.419436    9.784274    6.735530
C     7.151324    9.790669    6.688778
C    24.966883   11.022391    6.761032
C    26.389613   11.024964    6.753917
C    29.233286   11.028331    6.722868
C    22.120630   11.014590    6.745904
C    16.412867   11.012742    6.699825
C    20.695728   11.011805    6.725035
C    33.500416   11.028523    6.668207
C    17.844981   11.010246    6.695869
C    30.656463   11.028747    6.701121
C     0.753676   11.029056    6.660640
C     3.598078   11.026757    6.668193
C    12.127440   11.016019    6.726631
C    13.552981   11.014093    6.713529
C     7.862162   11.023734    6.711849
C     5.019835   11.025035    6.679498
C     9.283968   11.020722    6.724260
C    27.102983   12.258287    6.751476
C    24.259830   12.253643    6.743946
C    22.836484   12.249449    6.730613
C    31.366766   12.261735    6.711881
C    19.984412   12.244713    6.668345
C    28.525341   12.260233    6.743667
C    14.270198   12.247445    6.671446
C    18.555234   12.244561    6.628095
C     1.465016   12.261003    6.680167
C    15.697705   12.248424    6.661020
C    32.789152   12.261851    6.694722
C     5.729904   12.258572    6.704716
C     9.994188   12.252807    6.731210
C     2.887340   12.260076    6.682959
C    11.414763   12.248061    6.721233
C     7.151126   12.255957    6.717250
C    29.236660   13.492590    6.747142
C    16.411911   13.484528    6.643476
C    20.698251   13.481835    6.621632
C    33.500008   13.493824    6.710514
C     3.598352   13.492647    6.707889
C    13.553133   13.483132    6.644237
C    17.840542   13.480738    6.621532
C    22.126966   13.482383    6.664933
C    30.657880   13.493567    6.737115
C     0.753247   13.493906    6.702654
C    12.129375   13.479261    6.691994
C     7.859953   13.489151    6.730402
C     5.019613   13.490842    6.715819
C     9.279796   13.484519    6.734020
C     9.988538   14.717259    6.718102
C    14.267010   14.715864    6.587435
C    18.554362   14.712897    6.522486
C    31.367852   14.725920    6.745368
C     1.464906   14.725700    6.722725
C     5.728172   14.724815    6.730265
C    11.413531   14.717284    6.685894
C    15.698760   14.716171    6.605095
C    19.984020   14.713867    6.552638
C    28.530255   14.725258    6.746970
C    32.789610   14.725793    6.735013
C     2.887025   14.725432    6.723792
C     7.148624   14.722333    6.729553
C    22.846183   14.717962    6.641658
C     7.852875   15.956846    6.713673
C    12.129072   15.952122    6.614633
C    16.409547   15.951133    6.523977
C    33.500406   15.958656    6.745700
C     3.597527   15.958649    6.738453
C     9.273935   15.954831    6.685744
C    13.554962   15.949230    6.568736
C    17.842029   15.949275    6.510077
C     0.753952   15.958582    6.740076
C     5.018047   15.957736    6.734800
C    20.701950   15.948777    6.520479
C    29.240863   15.957555    6.748766
C    30.659990   15.958818    6.754789
C    22.133149   15.947221    6.555319
C     7.144689   17.191530    6.704991
C     5.725550   17.192488    6.727349
C     9.987464   17.190179    6.625109
C    14.270005   17.188514    6.560195
C     1.464936   17.192313    6.749593
C    11.411884   17.190227    6.595723
C    15.695923   17.185219    6.482623
C    32.791020   17.192283    6.756603
C     2.886628   17.192590    6.746405
C    18.557394   17.187424    6.474335
C    31.370043   17.192458    6.758142
C    19.987970   17.186417    6.485601
C    22.847730   17.185500    6.571457
C     7.852221   18.426852    6.679748
C    12.131323   18.425108    6.596789
C     5.015770   18.427626    6.731401
C     9.271440   18.427027    6.645236
C     3.596397   18.427359    6.746017
C    16.412320   18.425561    6.498329
C    33.501834   18.427327    6.758437
C    13.554887   18.424762    6.552323
C     0.754884   18.426939    6.755157
C    20.704774   18.423067    6.491565
C    17.843053   18.423880    6.454088
C    30.661964   18.426953    6.752108
C    29.244027   18.426238    6.734277
C    22.130968   18.423722    6.538058
C     9.986583   19.661033    6.606745
C     7.142243   19.662881    6.685968
C     5.723369   19.662590    6.715873
C    11.413752   19.662107    6.590636
C     1.465324   19.662433    6.753583
C    14.272508   19.663411    6.555920
C     2.886396   19.662607    6.747808
C    15.697438   19.662656    6.470336
C    32.792257   19.662117    6.756682
C    18.557976   19.663280    6.458805
C    31.371862   19.662170    6.751956
C    19.987513   19.665508    6.473509
C    22.846999   19.664273    6.568719
C    27.121476   19.662709    6.670104
C    28.538782   19.661391    6.707824
C    24.276824   19.663375    6.610187
C    22.106384   20.893668    3.274515
C    26.378267   20.893691    3.354987
C    30.647744   20.893992    3.425069
C     6.441931   20.893987    3.410197
C    10.712215   20.894048    3.343353
C     2.172893   20.894145    3.433468
C    14.984339   20.894276    3.268784
C    19.257766   20.893984    3.245622
C    23.530637   20.893675    3.298712
C    27.801766   20.893749    3.383695
C    32.071343   20.893978    3.433075
C     0.749245   20.894109    3.435513
C     5.018775   20.894041    3.423432
C     9.288396   20.894016    3.369365
C    13.560006   20.894322    3.290320
C    17.833032   20.894139    3.244081
C    15.696363   22.127689    3.271681
C    19.969645   22.127204    3.263609
C    24.242510   22.126816    3.314837
C     4.307519   22.127055    3.422732
C    28.513105   22.126782    3.392198
C     0.037637   22.127031    3.428813
C     8.576817   22.126992    3.382336
C    12.848334   22.127415    3.310781
C    17.120951   22.127469    3.262020
C    21.394147   22.127113    3.275553
C    25.666494   22.126750    3.339818
C    29.936454   22.126737    3.411749
C    32.783082   22.126990    3.428397
C     2.884288   22.127047    3.427204
C     7.153277   22.126905    3.400917
C    11.424292   22.127352    3.335464
C    13.560369   23.360875    3.316596
C    17.832901   23.360764    3.283393
C     2.172816   23.360030    3.420341
C    22.105973   23.360280    3.298867
C    26.377912   23.359856    3.357023
C     6.442099   23.359994    3.408637
C    10.712641   23.360375    3.359470
C    14.984668   23.360788    3.299571
C    19.257565   23.360557    3.283991
C    23.530261   23.360146    3.314656
C    27.801573   23.359586    3.380179
C    30.648026   23.359819    3.413154
C     0.749248   23.360005    3.420711
C     5.018815   23.359867    3.416950
C    32.071659   23.359820    3.418826
C     9.288730   23.360209    3.379404
C     0.037792   24.593081    3.410622
C    11.424719   24.594010    3.369226
C    15.696582   24.594341    3.321740
C    19.969373   24.593937    3.313379
C    24.241909   24.593395    3.340003
C     4.307606   24.593161    3.415060
C     8.577427   24.593398    3.399220
C    12.848852   24.594029    3.350960
C    17.121135   24.594102    3.315273
C    21.393834   24.593816    3.317502
C    25.665934   24.593031    3.356975
C    28.512977   24.592882    3.392818
C    29.936603   24.592727    3.404388
C    32.783214   24.593011    3.411244
C     2.884239   24.593084    3.413917
C     7.153698   24.593118    3.408875
C     9.289327   25.826976    3.409403
C    13.560845   25.827729    3.373302
C    17.832958   25.827649    3.347422
C    22.105555   25.827229    3.348464
C    32.071876   25.826157    3.402633
C     2.172882   25.826387    3.404047
C     6.442631   25.826579    3.416316
C    10.713370   25.827253    3.399912
C    14.985137   25.827593    3.360974
C    19.257570   25.827455    3.344999
C    23.529756   25.826873    3.356202
C    26.377343   25.826407    3.380331
C    27.801224   25.825979    3.392176
C    30.648106   25.826189    3.403873
C     0.749262   25.826358    3.401165
C     5.019066   25.826350    3.414640
C     7.154383   27.059843    3.423543
C    11.425418   27.060737    3.417971
C    15.697057   27.060925    3.391637
C    19.969283   27.060773    3.377768
C    29.936570   27.059172    3.401286
C     0.037823   27.059431    3.390453
C     4.307837   27.059601    3.409280
C     8.578163   27.060192    3.425195
C    12.849505   27.060834    3.409673
C    17.121489   27.060897    3.385246
C    21.393593   27.060483    3.377844
C    25.665451   27.059495    3.392635
C    24.241352   27.060031    3.386169
C    28.512754   27.059360    3.402368
C    32.783236   27.059428    3.392815
C     2.884304   27.059566    3.400471
C     5.019495   28.292565    3.413373
C     9.290206   28.293184    3.437506
C    13.561574   28.293803    3.431942
C    17.833275   28.293864    3.414857
C    27.800985   28.292152    3.408154
C    32.071794   28.292286    3.387636
C     2.172852   28.292403    3.389054
C     6.443117   28.292748    3.424359
C    10.714087   28.293461    3.438278
C    23.529446   28.292854    3.408576
C    14.985596   28.293752    3.426224
C    19.257539   28.293579    3.410949
C    22.105354   28.293359    3.408341
C    26.377072   28.292477    3.410556
C    30.648041   28.292242    3.395985
C     0.749242   28.292423    3.382825
C     7.155054   29.525430    3.432472
C    11.426210   29.526003    3.451430
C    15.697649   29.526353    3.447026
C    25.665235   29.525021    3.422854
C    29.936387   29.524907    3.397156
C     0.037757   29.525026    3.374862
C     4.308107   29.525118    3.403832
C    21.393344   29.525774    3.432327
C     8.578785   29.525623    3.441953
C    12.850004   29.526152    3.451577
C    17.121651   29.526252    3.442569
C    19.969376   29.526251    3.435361
C    24.241239   29.525478    3.427517
C    28.512612   29.524957    3.408419
C    32.783263   29.525000    3.378116
C     2.884517   29.525108    3.389659
C     5.019938   30.757816    3.409065
C     9.290823   30.758117    3.449087
C    13.562109   30.758502    3.462049
C    23.529264   30.757831    3.440679
C    27.800780   30.757526    3.413068
C    19.257472   30.758531    3.453558
C    32.071684   30.757635    3.376427
C     2.173067   30.757612    3.378963
C     6.443659   30.757886    3.424700
C    10.714601   30.758312    3.455804
C    14.985921   30.758605    3.461715
C    17.833554   30.758783    3.457254
C    22.105257   30.758305    3.446486
C    26.376852   30.757750    3.425078
C    30.647886   30.757583    3.387456
C     0.749414   30.757677    3.371536
C    32.783204   31.990421    3.368932
C     2.884867   31.990464    3.381045
C     7.155537   31.990698    3.428402
C    21.393314   31.990789    3.455183
C    11.426607   31.990845    3.459116
C    17.121796   31.991170    3.465637
C    25.665013   31.990357    3.429467
C    29.936156   31.990394    3.388417
C     0.037834   31.990402    3.366354
C     4.308613   31.990486    3.395499
C     8.579340   31.990722    3.441314
C    12.850427   31.990954    3.463408
C    15.697894   31.991153    3.466928
C    19.969364   31.991194    3.460333
C    24.240966   31.990668    3.440879
C    28.512216   31.990411    3.402885
C    30.647561   33.223471    3.376531
C     0.749555   33.223485    3.364513
C    19.257556   33.223973    3.461971
C     5.020398   33.223663    3.396909
C     9.291172   33.223772    3.440181
C    23.529149   33.223534    3.441965
C    27.800513   33.223427    3.402491
C    32.071548   33.223456    3.367436
C     2.173397   33.223460    3.370520
C     6.444222   33.223637    3.412371
C    10.715037   33.223763    3.449447
C    13.562337   33.223792    3.461769
C    17.833617   33.224088    3.464964
C    22.105124   33.223821    3.451497
C    14.986215   33.223945    3.464236
C    26.376464   33.223475    3.417569
C    17.121963   34.457083    3.458811
C    28.511816   34.456626    3.386439
C    32.783106   34.456659    3.360779
C     2.885157   34.456690    3.369742
C     7.155972   34.456885    3.408899
C    21.393321   34.456786    3.448015
C    25.664767   34.456555    3.414159
C    29.935820   34.456531    3.374309
C     0.037845   34.456537    3.359201
C     4.309013   34.456697    3.380441
C     8.579804   34.456852    3.421823
C    11.426882   34.456825    3.442953
C    12.850765   34.456891    3.449560
C    15.698063   34.456880    3.458183
C    19.969417   34.457001    3.454680
C    24.240734   34.456695    3.428178
C    26.376143   35.689659    3.395202
C    30.647282   35.689692    3.362501
C     0.749580   35.689689    3.355685
C     5.020814   35.689814    3.376254
C    14.986431   35.689933    3.444875
C    19.257666   35.689927    3.446813
C    23.528986   35.689693    3.422112
C    27.800074   35.689667    3.381628
C    32.071238   35.689588    3.356880
C     2.173498   35.689666    3.358996
C     6.444591   35.689800    3.387802
C     9.291606   35.689930    3.412738
C    10.715437   35.689850    3.422911
C    13.562599   35.689810    3.439966
C    17.833898   35.689968    3.449370
C    22.105070   35.689813    3.433872
C    24.240527   36.922503    3.403291
C    28.511564   36.922520    3.365414
C    32.782994   36.922522    3.350077
C     2.885321   36.922507    3.354601
C    12.851017   36.922592    3.420818
C    17.122034   36.922686    3.437704
C    21.393262   36.922549    3.426804
C    25.664407   36.922520    3.388844
C    29.935413   36.922464    3.357274
C     0.037734   36.922452    3.349073
C     4.309173   36.922531    3.360180
C     8.580184   36.922584    3.389483
C     7.156469   36.922588    3.378935
C    11.427258   36.922591    3.411694
C    15.698360   36.922638    3.435193
C    19.969556   36.922709    3.434610
C    22.104951   38.155242    3.412656
C    26.375854   38.155261    3.371270
C    30.647189   38.155287    3.347422
C     0.749582   38.155247    3.343707
C    10.715776   38.155159    3.390313
C    14.986533   38.155235    3.421151
C    19.257591   38.155294    3.427684
C    23.528752   38.155207    3.399172
C    27.799718   38.155261    3.359867
C     6.444812   38.155154    3.359890
C    32.071124   38.155221    3.344229
C     2.173561   38.155245    3.344744
C     5.021035   38.155138    3.353423
C     9.292023   38.155153    3.379356
C    13.562822   38.155245    3.413024
C    17.834005   38.155361    3.429751
C    24.240174   39.387961    3.385511
C    28.511423   39.388118    3.348476
C    32.782990   39.388105    3.337638
C     8.580399   39.387830    3.361695
C    12.851267   39.387836    3.398819
C    17.122028   39.387979    3.423978
C    21.393165   39.387981    3.412716
C     4.309257   39.387938    3.341493
C    25.664111   39.388016    3.370152
C    29.935406   39.388100    3.342207
C     0.037854   39.388107    3.336625
C     2.885345   39.387979    3.339137
C     7.156601   39.387766    3.353258