1183      
Geometry optimisation iteration:     9 | Lattice="34.1692 0.0000 0.0000  0.0000 39.4552 0.0000  0.0000 0.0000 100.0000"
Li    2.168700    1.174804    4.734066
Li    2.168674    6.096131    4.728897
Li    2.168928   11.017292    4.761558
Li    2.166716   15.975452    4.823690
Li    2.165537   20.883346    4.839105
Li    2.168321   25.827575    4.812413
Li    2.168030   30.776362    4.781024
Li    2.167480   35.681886    4.754078
Li   10.718986    1.174996    4.777821
Li   10.719146    6.088361    4.791841
Li   10.709958   11.014460    4.813702
Li   10.708606   15.958409    4.778363
Li   10.724319   20.875219    4.752662
Li   10.714176   25.845593    4.797385
Li   10.721968   30.781483    4.844726
Li   10.723767   35.678047    4.819908
Li   19.267512    1.175048    4.829537
Li   19.268145    6.086012    4.849799
Li   19.272421   11.012152    4.823329
Li   19.267786   15.970219    4.703612
Li   19.293713   20.892384    4.655102
Li   19.262352   25.811756    4.745288
Li   19.269177   30.799332    4.826861
Li   19.267816   35.677234    4.846539
Li   27.798423    1.174486    4.755234
Li   27.798296    6.091882    4.776660
Li   27.797977   11.019399    4.816899
Li   27.813334   15.966090    4.806716
Li   27.812261   20.889203    4.773030
Li   27.801459   25.831962    4.771986
Li   27.795768   30.774528    4.799739
Li   27.797687   35.683218    4.782303
Li    6.443929    3.620751    4.741520
Li    6.441295    8.569659    4.760363
Li    6.439758   13.480272    4.797330
Li    6.434701   18.422930    4.803954
Li    6.430197   23.380417    4.799561
Li    6.443179   28.287585    4.815664
Li    6.445113   33.231096    4.802821
Li    6.443529   38.169491    4.760324
Li   14.999638    3.622116    4.825767
Li   14.996521    8.552325    4.845194
Li   15.016278   13.499475    4.802256
Li   14.993597   18.427860    4.731035
Li   15.007105   23.373358    4.719880
Li   14.990099   28.304820    4.820320
Li   14.998526   33.233454    4.855050
Li   14.999434   38.160752    4.826484
Li   23.531705    3.621659    4.807114
Li   23.539518    8.567056    4.837801
Li   23.546138   13.474085    4.809176
Li   23.546461   18.434348    4.733940
Li   23.552930   23.379870    4.718762
Li   23.559331   28.296363    4.779612
Li   23.530287   33.232663    4.831662
Li   23.532459   38.164013    4.803989
Li   32.064085    3.621365    4.732686
Li   32.066584    8.569544    4.754476
Li   32.065567   13.487141    4.809214
Li   32.069249   18.424992    4.839511
Li   32.066995   23.373670    4.817296
Li   32.064956   28.284839    4.789344
Li   32.066309   33.232365    4.766194
Li   32.064209   38.167135    4.743309
C    17.831291   20.893924    2.796792
C    18.545016   22.130608    2.798859
C    18.545105   19.657300    2.793075
C    20.687453   20.894009    2.795141
C    19.973017   22.130820    2.797480
C    19.973189   19.656808    2.793502
C    16.410810   20.894069    2.824280
C    22.107719   20.894061    2.831254
C    17.834898   23.360380    2.833666
C    20.682936   23.360937    2.833854
C    17.834806   18.426817    2.820017
C    20.683160   18.426543    2.827115
C    15.700384   22.124320    2.827764
C    16.414216   23.360630    2.832800
C    15.700400   19.663452    2.826284
C    22.817624   22.124591    2.831502
C    22.103695   23.360702    2.832566
C    16.413997   18.426881    2.825093
C    22.817619   19.663337    2.839181
C    22.103894   18.426756    2.840620
C    18.544827   24.591032    2.847532
C    19.972377   24.591048    2.845726
C    18.545053   17.195949    2.818495
C    19.972818   17.195994    2.822498
C    14.273237   22.124287    2.848546
C    14.273143   19.663568    2.844060
C    24.244675   22.124192    2.845262
C    22.816812   24.597356    2.847298
C    15.700603   24.597378    2.862330
C    13.563181   20.893939    2.864774
C    24.244849   19.663740    2.857549
C    15.700563   17.190537    2.851447
C    13.559066   23.360327    2.871822
C    20.685988   25.827556    2.873578
C    22.817049   17.190366    2.868596
C    24.244564   24.597083    2.849004
C    24.958619   23.360604    2.847941
C    24.955031   20.894159    2.870826
C    17.831048   25.827270    2.881129
C    14.272713   24.597150    2.879762
C    22.106701   25.827194    2.882700
C     0.745304    6.098553    2.836713
C     1.459381    7.334318    2.839810
C     2.886305    7.334127    2.841700
C     1.459359    4.862794    2.834579
C    16.410613   25.827196    2.902838
C    33.494270    6.098511    2.853093
C     2.886329    4.862725    2.836415
C     3.600279    6.098470    2.840550
C    13.559408   18.427133    2.863290
C    20.686770   15.959546    2.852232
C    17.831152   15.959782    2.844505
C     0.748793    8.564374    2.859640
C    32.783709    4.868460    2.841591
C     0.748699    3.632646    2.846509
C    33.497617    3.632644    2.837441
C    32.783678    7.328797    2.852261
C     3.596987    8.564312    2.862502
C     5.020688    6.098228    2.860374
C     3.596994    3.632560    2.849575
C    33.497591    8.564472    2.855517
C    14.273108   17.190337    2.870374
C    31.356997    4.868405    2.847752
C     5.017380    3.632320    2.843693
C     1.459414    9.794845    2.858567
C     1.459524    2.402186    2.837635
C     5.731266    4.868224    2.850354
C    12.142585   20.893857    2.872176
C     2.886331    9.794752    2.859605
C     2.886284    2.402086    2.839243
C    32.783789    2.396439    2.838183
C    16.411113   15.960187    2.875893
C    30.643022    3.632641    2.845957
C     5.017368    8.564154    2.860818
C     5.731312    7.328332    2.860703
C    31.357004    2.396371    2.840703
C    12.139082   23.359818    2.907678
C    22.106859   15.960113    2.891589
C    24.958617   18.427032    2.877759
C     0.745496    1.166002    2.841183
C    30.646585    6.098403    2.871612
C     5.731177    2.396132    2.846782
C    31.357128    7.328429    2.862581
C    33.494519    1.166061    2.851692
C     7.158149    4.868120    2.861550
C     3.600232    1.165886    2.845268
C    26.378597   23.359931    2.878923
C    24.954410   25.827483    2.880648
C    24.244495   17.190341    2.886658
C     5.020525    1.165804    2.859722
C     7.158317    2.396002    2.854698
C    30.646418    1.166089    2.857286
C    29.222895    3.632562    2.868245
C    11.428837   22.129924    2.891365
C     0.745610   11.030906    2.877021
C     1.459520   39.385178    2.848050
C     7.872090    3.632173    2.862492
C    32.784116    9.800653    2.872182
C    32.783852   39.390997    2.845969
C     2.886254   39.385111    2.850705
C    19.972307   27.063793    2.902965
C     3.600186   11.030786    2.877229
C    26.375384   20.893858    2.878158
C    18.544716   27.063802    2.909317
C    31.357073   39.391082    2.848184
C     7.158052    7.327925    2.875105
C    28.512439    2.402250    2.859651
C    22.816667   27.057885    2.893852
C    29.226107    1.166065    2.855434
C     0.748844   38.155224    2.864319
C     5.731037    9.800273    2.875697
C     7.868428    6.098006    2.888055
C    33.497883   38.155279    2.852208
C    12.138967   18.427265    2.893298
C    13.563037   25.827124    2.928692
C    29.226345    6.098203    2.875714
C    11.428807   19.657374    2.880347
C    28.512477    4.862785    2.873183
C    33.494644   11.030739    2.896850
C     7.868671    1.165709    2.876902
C     5.731183   39.390700    2.859517
C     3.596877   38.155146    2.871650
C     5.020404   11.030288    2.895907
C     9.292328    3.632114    2.890511
C    27.088858   22.129729    2.881095
C    30.643227    8.564260    2.880077
C     1.459687   36.925210    2.859919
C    24.243727   27.057520    2.887069
C    32.783875   36.919745    2.858987
C    26.374660   25.826758    2.878987
C    27.088435   24.590480    2.879095
C    30.643069   38.155313    2.858741
C     2.886312   12.266841    2.895680
C     1.459468   12.266830    2.896580
C     2.886306   36.925194    2.864931
C     0.745619   35.689544    2.862213
C    11.428914   24.590353    2.920253
C    18.544952   14.723195    2.870671
C    19.972793   14.723249    2.873283
C    28.512480   39.385318    2.867156
C     7.158227   39.390675    2.868357
C     5.017227   38.155054    2.866597
C    31.357174    9.800579    2.885634
C    27.085562    2.402268    2.874123
C    33.494706   35.689761    2.874192
C    15.700419   27.057374    2.929887
C     9.289189    1.165633    2.881165
C    10.002626    2.401876    2.885435
C    31.357258   36.919757    2.863401
C     1.459692   34.453417    2.868243
C    29.223027   38.155400    2.881108
C     7.871977    8.563841    2.891110
C    13.563637   15.960750    2.917622
C     7.158157    9.800052    2.890652
C     0.749088   33.223332    2.885781
C     9.289068    6.097800    2.895846
C    32.784199   34.459459    2.870794
C    10.002697    4.862314    2.896140
C    26.378614   18.427514    2.910174
C    33.498078   33.223388    2.876169
C    12.142551   25.826636    2.927971
C    10.001423   22.129874    2.907682
C     3.600469   35.689487    2.875816
C    26.371869    1.166022    2.882168
C    27.085817    4.862393    2.890675
C     2.886598   34.453433    2.876720
C    27.088569   19.657737    2.894900
C    27.085741   39.385228    2.880012
C    26.375546    3.632393    2.902500
C     1.459732   31.993112    2.885472
C    28.512884    7.333784    2.896851
C    14.273143   27.057215    2.937964
C    15.700977   14.730632    2.904376
C    30.646790   35.689882    2.887092
C     0.745867   30.757386    2.895393
C    11.429872    2.401961    2.903645
C    29.223468    8.563653    2.912616
C     5.731085   36.919452    2.883502
C     5.730885   12.260465    2.905367
C    32.784461   31.987326    2.887698
C    31.357460   34.459798    2.877536
C    32.784350   12.260738    2.912223
C    20.682376   28.293658    2.940071
C    22.102714   28.293292    2.919601
C    33.495010   30.757525    2.907545
C    11.429062   17.196995    2.904302
C     7.872096   38.154988    2.888628
C     2.886664   31.993298    2.894942
C    10.001102   19.657416    2.898296
C    10.002559   39.384836    2.899664
C    10.001708   24.590065    2.928698
C    24.954072   15.960345    2.928844
C     3.596658   13.496374    2.930258
C     0.749130   13.496395    2.934331
C    22.816718   14.730151    2.917122
C    28.514939   24.590117    2.896140
C    27.087982   27.063041    2.895097
C     5.020457   35.689715    2.901027
C     3.597102   33.223358    2.904845
C    28.512681   36.925406    2.886682
C     9.291441   23.360040    2.935281
C     1.459826   29.521757    2.909689
C    28.515364   22.129931    2.900231
C     9.287435   20.894031    2.907460
C    17.834736   28.293436    2.954050
C    14.274008   14.730802    2.924508
C    24.951919    1.165991    2.913681
C    12.143182   15.960967    2.916871
C    24.957643   28.293429    2.903116
C    12.143355    1.165636    2.914695
C    30.647125   11.030403    2.924844
C    29.226656   35.689969    2.888356
C    11.429804    4.861926    2.915341
C    12.139793    3.632007    2.931205
C     9.291988    8.563246    2.924516
C     5.016804   13.496061    2.919257
C     7.868290   11.030041    2.923891
C    31.357684   31.987480    2.894606
C    32.784719   29.527580    2.906379
C     7.158074   36.919367    2.896711
C    10.002505    7.333349    2.914832
C    30.643767   33.223568    2.890543
C    26.375779   38.155440    2.909342
C     2.886507   29.521769    2.917289
C     9.292196   38.155096    2.917942
C    33.498386   13.496292    2.928220
C     3.600529   30.757430    2.912689
C    24.955307    3.632186    2.912780
C    11.429710   39.384751    2.914875
C     0.749450   28.292109    2.929835
C     7.157786   12.259949    2.915813
C    16.414293   28.293201    2.948189
C    28.514720   27.062710    2.901781
C    29.225148   23.359886    2.920091
C    24.241890    2.396248    2.914818
C    26.372161    6.097986    2.912998
C    26.377504   28.292907    2.918512
C    33.498702   28.292034    2.914018
C    29.228485   25.826367    2.902656
C    31.357762   12.260406    2.922704
C    27.086091   36.925644    2.900502
C     5.017297   33.223528    2.911430
C    31.358168   29.527857    2.909097
C    27.086166    7.333641    2.916044
C    24.243550   14.730656    2.929453
C     2.886217   14.726143    2.937897
C     5.731022   34.459469    2.909201
C    30.647527   30.757615    2.919552
C    27.088142   17.196964    2.921304
C     1.459669   14.726078    2.940108
C    13.563575    1.165711    2.945523
C    24.241880   39.391055    2.914343
C     9.287809   25.826581    2.935076
C     9.291210   18.427441    2.925407
C    10.001541   17.197418    2.914925
C    11.429072   27.063631    2.942883
C    28.515671   19.657576    2.912252
C     3.596845   28.292052    2.941968
C    17.835208   13.494596    2.924983
C     7.871190   23.359824    2.927995
C     1.459794   27.062023    2.929570
C    30.644374   28.292195    2.911108
C    20.682541   13.494243    2.929392
C    29.224522   28.292854    2.923802
C    28.513166   34.453914    2.902802
C    26.374213   15.961029    2.929318
C    32.785210   27.056015    2.919188
C    28.513431    9.793904    2.925729
C    29.223806   33.223986    2.915790
C    13.560345    3.631898    2.940405
C    24.955511   38.155505    2.913829
C     5.020306   30.757714    2.940402
C    31.358327   27.056070    2.913643
C     2.886482   27.061978    2.933403
C    29.229360   20.893828    2.915110
C    30.648362   25.825910    2.926807
C    14.273406    2.395903    2.942483
C    16.415002   13.494714    2.924116
C     9.288607   11.029681    2.930352
C     7.867352   20.894081    2.936290
C    29.227170   11.029852    2.930734
C     5.730665   14.731672    2.932306
C    22.814880    2.396013    2.931616
C    28.513959   29.522610    2.919906
C    10.002321    9.793380    2.931153
C    22.816053   29.529386    2.930893
C    29.227553   30.758162    2.917106
C    24.243373   29.529444    2.922156
C     7.157423   24.596109    2.929335
C    22.102958   13.494743    2.931241
C     7.867807   25.826244    2.946940
C     7.868232   35.689850    2.931928
C     7.871692   13.495680    2.929723
C     5.730863   31.987415    2.928888
C     5.016824   28.292238    2.937220
C    12.143513    6.097596    2.934299
C    24.242103    4.868004    2.933731
C    10.001419   27.063301    2.942653
C    13.559338   28.293301    2.956853
C     7.157319   22.124138    2.930256
C    11.429694   14.724484    2.934879
C    27.087469   29.522964    2.921347
C     0.746108   25.825742    2.936078
C    11.429744    7.333432    2.934208
C    19.971915   29.523192    2.950770
C    33.495394   25.825821    2.943516
C    12.139444   38.155140    2.947480
C    30.645110   23.359757    2.928561
C     7.157845   34.459805    2.924262
C    22.814831   39.391146    2.930317
C    22.105155    1.165906    2.948533
C    10.002318   36.925185    2.930546
C    14.273353   39.390839    2.944687
C    28.513707   31.993912    2.917101
C    31.358660   24.595700    2.928177
C    32.784821   14.731821    2.946038
C     5.730729   29.527882    2.940165
C     7.157520   14.731459    2.932361
C     3.600189   25.825836    2.937886
C    26.372281   35.690074    2.917476
C    24.952390    6.097536    2.947827
C     9.287729   15.960831    2.925555
C     5.730601   27.056206    2.938157
C    18.544842   29.523300    2.957600
C     5.020196   25.826256    2.947119
C     3.600003   15.961667    2.945702
C    15.700865    2.395701    2.951574
C     7.157587   27.056399    2.940551
C    13.560289   13.495014    2.950475
C     7.870866   18.427798    2.926714
C     5.730400   24.596130    2.930334
C    10.001858   14.724653    2.932457
C     0.745752   15.961703    2.952596
C     9.291615   13.495019    2.949481
C    30.644001   13.496011    2.939687
C    27.086205   34.453981    2.917765
C     5.020156   15.961385    2.952136
C    12.139054   28.293068    2.970352
C     7.157393   19.664092    2.930084
C    32.785417   24.595709    2.938063
C    10.002377   12.265513    2.943508
C    28.514991   17.197380    2.933536
C    16.410477    1.165705    2.965868
C     7.867635   15.961291    2.943861
C     2.886556   24.589460    2.944062
C    29.225204   18.427684    2.945523
C    22.101596    3.632075    2.945291
C     1.459779   24.589438    2.946010
C    13.559939   38.155279    2.947462
C    12.140038   13.495375    2.963757
C    15.700703   39.391043    2.952080
C    26.376467    8.563404    2.951069
C    20.684799    1.165804    2.948964
C     9.288554   35.689872    2.935706
C    24.242153   36.919916    2.931779
C    14.273594    4.867639    2.954702
C     5.016409   23.359642    2.936108
C    26.373283   30.758337    2.930607
C    11.429279   36.925462    2.942069
C     7.157365   17.191360    2.932450
C     5.730389   22.124002    2.937073
C     7.871426   28.292442    2.949753
C    33.495209   15.961523    2.968261
C    17.831008    1.165681    2.958131
C    30.648810   20.894123    2.952341
C    31.358086   14.731776    2.947148
C     7.157496   29.528285    2.950303
C    27.086788    9.793280    2.940894
C     7.157727   31.987464    2.942993
C    31.358811   22.123986    2.944324
C    27.086682   31.994426    2.928491
C    19.971606    2.402001    2.954587
C     9.291378   28.293048    2.967034
C    22.815192    4.867977    2.948930
C    27.087681   14.725132    2.942736
C    15.700652   29.529258    2.963192
C    22.101303   38.155410    2.942908
C     2.886553   17.197946    2.951904
C    28.513704   12.265823    2.945599
C    18.544178    2.401918    2.958831
C     3.596564   23.359438    2.959322
C     5.730317   17.191238    2.937789
C    24.953217   30.758826    2.949134
C    13.563652    6.097300    2.966354
C    19.971439   39.385141    2.956253
C    16.414248    3.631821    2.959133
C    11.429567    9.792979    2.949779
C    24.957420   13.494925    2.942464
C    24.952418   35.690397    2.946864
C    33.499171   23.359654    2.951449
C     7.871492   33.223610    2.941081
C    11.429684   12.265473    2.955308
C     0.749545   23.359518    2.967587
C     1.459501   17.198152    2.956631
C    29.224233   13.495404    2.957767
C    26.376278   33.224098    2.945808
C    18.544269   39.385160    2.960744
C     5.730312   19.664313    2.939057
C    20.681419    3.631963    2.968548
C     5.020242   20.894161    2.957298
C    12.139592    8.563078    2.965843
C    14.272965   29.529129    2.965402
C    29.228597   15.961344    2.943752
C     5.016552   18.428048    2.941865
C    28.514331   14.725166    2.944990
C    22.105973   30.758532    2.961914
C     7.867925   30.757693    2.967515
C    18.545171   12.264681    2.944477
C    17.834728    3.631890    2.975670
C    32.785370   22.123767    2.956653
C    19.972225   12.264857    2.943119
C     2.886402   22.129566    2.958855
C    26.377211   13.495544    2.959519
C    22.815012   36.919864    2.944596
C    30.648309   15.961595    2.964294
C    15.700921    4.867704    2.963628
C    30.645200   18.427855    2.952635
C    20.681161   38.155430    2.968384
C     3.596732   18.428060    2.963980
C    16.414284   38.155320    2.958858
C    20.685434   30.758769    2.954422
C     1.459752   22.129591    2.963151
C    15.701300   12.258646    2.954448
C    31.358772   19.663955    2.956390
C    14.273636   12.259126    2.962093
C    32.785254   17.191743    2.963983
C     3.600147   20.894087    2.956912
C    24.242596    7.327310    2.955967
C    12.143325   11.029522    2.961580
C    10.001912   29.522795    2.967747
C     0.749442   18.427996    2.976640
C    17.834650   38.155400    2.976349
C    31.358595   17.191643    2.959551
C     2.886458   19.658213    2.959449
C    27.087129   12.265665    2.950213
C    11.428793   29.522898    2.969826
C     0.745903   20.894115    2.966639
C    33.495170   20.894157    2.977914
C    22.816160   12.258481    2.948795
C    14.273184   36.919756    2.959377
C    10.001899   34.453712    2.949811
C     1.459643   19.658102    2.964884
C    26.373239   11.029581    2.950897
C    33.498766   18.427870    2.967750
C    24.242772   31.988484    2.952180
C    24.956418    8.563021    2.955132
C    24.956095   33.224431    2.949253
C    32.785226   19.664122    2.966911
C     9.291583   33.223890    2.965386
C     9.288133   30.758102    2.966042
C    24.242542   34.460382    2.950643
C    24.243594   12.258723    2.948585
C    17.831095   30.758737    2.965810
C    12.142968   35.689936    2.955243
C    19.971746    4.861774    2.968114
C    22.105612    6.097555    2.977045
C    15.700706   36.919683    2.963072
C    18.544433    4.861692    2.971546
C    22.815785   31.988428    2.957505
C    19.971444   36.925751    2.966661
C    13.563535   11.029100    2.984751
C    16.410614   30.758681    2.983061
C    14.273422    7.327092    2.969468
C    22.105414   35.690286    2.970122
C    13.560107    8.562852    2.971030
C    10.001719   31.993959    2.964612
C    18.544326   36.925739    2.970576
C    11.429352   34.453679    2.957771
C    13.563302   35.690140    2.976253
C    24.953501   11.028984    2.968016
C    22.815666    7.327100    2.967871
C    12.142712   30.758308    2.973667
C    22.815482   34.460537    2.959205
C    13.563106   30.758753    2.986840
C    16.410765    6.097234    2.986274
C    20.685253    6.097364    2.972363
C    19.972138   31.994825    2.958730
C    24.243037    9.799068    2.962236
C    20.684966   35.690287    2.965666
C    22.102234   33.224424    2.962652
C    16.411325   11.029022    2.982372
C    11.429184   31.994247    2.969971
C    17.831265    6.097258    2.978294
C    22.106098   11.029066    2.972994
C    17.831379   11.028879    2.964880
C    20.685919   11.028610    2.959778
C    14.273505    9.799114    2.979234
C    18.544068   31.994900    2.963313
C    15.701043    7.326711    2.976512
C    16.410458   35.690168    2.983420
C    17.830995   35.690279    2.972981
C    12.139445   33.223959    2.981603
C    20.681867   33.224546    2.975523
C    15.700538   31.988364    2.977907
C    14.273088   34.460193    2.974615
C    19.971734   34.454313    2.967557
C    14.273210   31.988316    2.979915
C    22.815946    9.798887    2.967774
C    22.102348    8.562898    2.972959
C    13.559940   33.224248    2.977588
C    15.701058    9.798911    2.980957
C    15.700486   34.460400    2.975546
C    18.544190   34.454371    2.971123
C    19.971963    7.332877    2.978702
C    17.834269   33.224533    2.982608
C    18.544562    7.332645    2.981438
C    16.413754   33.224405    2.976285
C    16.414507    8.562728    2.980686
C    19.972351    9.792213    2.968031
C    18.544630    9.792195    2.971688
C    20.682030    8.562405    2.987381
C    17.834894    8.562432    2.992335
C    17.841095   20.903678    6.473420
C    17.846108   18.427889    6.503147
C    18.557452   19.660249    6.506271
C    15.702681   19.669416    6.535883
C    18.556517   22.141363    6.510578
C    19.991590   19.662820    6.506032
C    18.558693   17.195140    6.522916
C    15.701874   17.184029    6.548171
C    19.993072   17.196225    6.515153
C    16.416215   20.899853    6.546975
C    20.705480   18.425865    6.507725
C    20.705063   20.902896    6.536600
C    16.420896   18.426818    6.593173
C    15.702008   22.135921    6.550335
C    17.841125   15.955882    6.572375
C    19.989548   22.142635    6.542760
C    20.707169   15.951469    6.539903
C    18.555739   14.715553    6.565879
C    16.414143   15.953951    6.603283
C    16.419273   23.372017    6.559640
C    22.128549   18.426576    6.560107
C    13.557692   20.902906    6.584248
C    22.133001   20.901739    6.583635
C    20.702406   23.378953    6.552980
C    14.268627   22.133025    6.596522
C    13.554608   18.426526    6.586092
C    19.986442   14.717978    6.601667
C    22.134028   15.950731    6.560426
C    22.128968   23.379486    6.558887
C    14.272598   19.667741    6.642475
C    14.271267   17.187784    6.634656
C    17.845217   23.372465    6.607669
C    13.549056   23.375819    6.556032
C    22.842996   19.668418    6.596246
C    13.556145   15.949965    6.599333
C    22.844709   17.181162    6.588593
C    22.843969   22.144511    6.591677
C    15.701988   24.611814    6.599031
C    12.132069   20.900489    6.621541
C    11.411320   22.140929    6.577725
C    14.264585   14.720918    6.620012
C    24.278041   22.141261    6.592553
C    11.417560   19.659407    6.602557
C    12.124265   23.372023    6.569572
C    11.415627   17.193074    6.597682
C    20.705715   25.852182    6.558258
C    12.131027   18.427235    6.621766
C    14.268454   24.611770    6.587995
C    18.557842   24.608029    6.612749
C    24.988926   20.904670    6.601863
C    19.989377   24.608664    6.626532
C    15.698730   14.721638    6.682043
C     9.981916   19.659051    6.604245
C     9.980688   22.138722    6.583656
C    22.845155   24.617302    6.602359
C    24.276684   19.666395    6.634699
C    22.132118   25.847973    6.581718
C    12.131805   15.952918    6.619312
C    24.988278   23.378429    6.601703
C    16.418755   25.847286    6.620358
C    24.992876   18.424313    6.607113
C    17.841238   13.487057    6.702564
C    20.698509   13.480160    6.650323
C     0.748627    6.095289    6.615351
C     1.461924    4.860526    6.614638
C     0.751980    3.631539    6.604702
C    32.788784    4.866188    6.615746
C    33.502105    3.631416    6.616005
C    33.498760    6.095292    6.605268
C    24.276345   17.180049    6.617159
C     2.887624    4.860393    6.615119
C     9.982634   17.194067    6.611713
C     1.461568    7.330262    6.618053
C    32.788790    2.396499    6.619868
C     1.462045    2.402489    6.619004
C    24.270341   24.615269    6.606010
C     3.597893    3.631395    6.606743
C     2.888025    2.402354    6.619526
C    18.554203   12.246285    6.640718
C     3.600519    6.094920    6.616546
C    31.363233    4.866014    6.621192
C     2.887163    7.329750    6.618846
C    31.362876    2.396291    6.623029
C    17.842967   25.846851    6.618427
C     0.748750    1.167502    6.620716
C    30.649544    3.631270    6.624312
C    33.498784    1.167424    6.610246
C    32.789423    7.324356    6.623613
C     5.017057    3.630915    6.621250
C     0.752044    8.559792    6.613405
C     3.601398    1.167374    6.622052
C    30.652585    1.167407    6.614995
C    32.788721   39.393796    6.624534
C    26.405837   20.902611    6.626193
C    18.559806   27.089690    6.605707
C     1.462265   39.387936    6.621358
C     5.020823    1.167174    6.615353
C     5.730959    2.396007    6.625943
C     5.019676    6.094211    6.609470
C     2.887973   39.387863    6.622230
C    31.362828   39.393867    6.627376
C    33.502506    8.559867    6.628053
C     5.730283    4.865367    6.621541
C     9.266296   20.897928    6.625231
C    30.653613    6.095045    6.617874
C    26.403075   23.374356    6.602844
C    29.233399    1.167253    6.629893
C    29.230254    3.630831    6.620415
C     0.752084   38.159147    6.612562
C     9.266168   23.372189    6.605617
C    33.502238   38.159289    6.624716
C     3.596140    8.559027    6.615837
C    28.519835    2.401993    6.633487
C    22.844032   14.718880    6.651205
C    31.363797    7.324037    6.630919
C     7.157323    2.395573    6.630160
C    16.413590   13.484304    6.692968
C    30.649291   38.159371    6.631124
C    13.546686   13.480811    6.642233
C    19.990374   27.090315    6.605447
C     5.731428   39.393710    6.633543
C     1.461151    9.789488    6.633071
C     9.270609   18.427513    6.630027
C     3.598334   38.159044    6.616199
C    28.519610   39.387934    6.633303
C    32.788840   36.924973    6.628134
C     2.886438    9.789037    6.633694
C     1.462294   36.930544    6.628505
C    31.363148   36.925117    6.631977
C     5.728620    7.322595    6.629237
C    29.230070   38.159503    6.623703
C     7.868315    1.166747    6.624643
C     7.156078    4.864565    6.628160
C     5.017576   38.159142    6.633847
C     7.157808   39.393475    6.637711
C    27.113701   22.138735    6.624301
C     2.888148   36.930413    6.629922
C     5.014691    8.558306    6.633312
C    28.520633    4.859441    6.641907
C    33.498982   35.696112    6.621200
C     7.870521    3.630010    6.631807
C     0.748827   35.695923    6.633664
C    27.093623    2.401763    6.642103
C    29.234758    6.094283    6.641636
C    27.093686   39.387996    6.640500
C    32.790275    9.795485    6.640384
C    32.789419   34.466932    6.638843
C    26.379638    1.167059    6.645074
C    30.653313   35.696287    6.629264
C     9.287792    1.166441    6.643811
C    11.409213   24.609865    6.635123
C    24.977404   25.843332    6.612316
C    28.520179   36.931147    6.645742
C     1.462340   34.460783    6.639974
C     0.748676   11.025932    6.642640
C    15.696638   12.246118    6.674584
C    33.502722   33.231385    6.641959
C    31.363632   34.467206    6.643640
C     0.752466   33.231358    6.632063
C    30.651579    8.559072    6.645163
C     3.601653   35.695901    6.638568
C    22.123559   13.481838    6.677196
C     7.154494    7.321854    6.637182
C     7.871905   38.159104    6.645203
C     5.731582   36.924900    6.641541
C    29.234256   35.696620    6.649751
C    26.411429   18.425798    6.625503
C     7.865534    6.092600    6.625855
C    13.553543   25.851669    6.646665
C    26.383176   38.159582    6.640091
C     9.290313    3.629402    6.631826
C     2.888202   34.460971    6.643660
C    26.383400    3.630218    6.641710
C    32.789967   31.995906    6.645888
C     7.849854   20.898820    6.627944
C     3.598277   11.024875    6.642239
C    33.499689   11.025820    6.637389
C    27.108775   24.602327    6.633020
C    24.983473   15.948821    6.631959
C    19.985857   12.247513    6.688636
C    10.001639    2.400674    6.648274
C    10.002555   39.387162    6.650756
C    27.117419   19.661637    6.640645
C    27.094469    4.858890    6.654012
C    27.094089   36.931357    6.654905
C    24.960051    1.166861    6.647738
C     1.461885   32.001895    6.651271
C    14.264490   12.244080    6.657300
C     5.726747    9.793204    6.644290