 +---------------------------------------------------------------+
 |                                                               |
 |        ####### #     # ####### ####### ####### ######         |
 |        #     # ##    # #          #    #       #     #        |
 |        #     # # #   # #          #    #       #     #        |
 |        #     # #  #  # #####      #    #####   ######         |
 |        #     # #   # # #          #    #       #              |
 |        #     # #    ## #          #    #       #              |
 |        ####### #     # #######    #    ####### #              |
 |                                                               |
 |        Linear-Scaling Ab Initio Total Energy Program          |
 |                                                               |
 |          Release for academic collaborators of ODG            |
 |                                             Version 6.1.59    |
 | Remote: https://github.com/onetep-devel/onetep.git            |
 | Local branch: master                                          |
 | Commit ID: 3df6b8ca88fa1735659d3248d54c94b50edec21b           |
 | Date: Thu Oct 5 13:49:52 2023 +0200                           |
 | Working tree clean                                            |
 |                                                               |
 +---------------------------------------------------------------+
 |                                                               |
 |  Authors:                                                     |
 |  Jacek Dziedzic, Peter D. Haynes, Nicholas D. M. Hine,        |
 |  Arash A. Mostofi, Mike C. Payne and Chris-Kriton Skylaris    |
 |                                                               |
 |  Contributors:                                                |
 |  J. Aarons, L. Andrinopoulos, P. W. Avraam, R. A. Bell,       |
 |  A. Bhandari, G. A. Bramley, R. J. Charlton, S. J. Clark,     |
 |  R. J. Clements, G. C. Constantinescu, F. Corsetti,           |
 |  N. Corsini, O. Dieguez, S. M. M. Dubois, K. K. B. Duff,      |
 |  J. M. Escartin, M. Escobar Azor, A. Greco,                   |
 |  H. Helal, Q. O. Hill, L. P. Lee, J.-H. Li,                   |
 |  E. B. Linscott, G. Moynihan, D. D. O`Regan,                  |
 |  O. K. Okan, M. J. S. Phipps, C. J. Pickard,                  |
 |  J. C. A. Prentice, M. I. J. Probert, L. E. Ratcliff,         |
 |  M. Robinson, A. Ruiz Serrano, M. dos Santos Dias,            |
 |  J. S. Spencer, E. W. Tait, G. Teobaldi, D. Turban,           |
 |  V. Vitale, K. A. Wilkinson, C. Weber, J. C. Womack,          |
 |  N. Yeung and T. J. Zuehlsdorff                               |
 |                                                               |
 |                                   Copyright (c) 2004-2023     |
 |                                                               |
 |  Please cite:                                                 |
 |  "The ONETEP linear-scaling density functional theory program"|
 |   J. Chem. Phys. 152(17) 174111 (2020)                        |
 |                                                               |
 |          in all publications arising from your use of ONETEP. |
 |                                                               |
 +---------------------------------------------------------------+
 |                                                               |
 |   ONETEP is based on developments described in the following  |
 |   publications:                                               |
 |                                                               |
 |  "Nonorthogonal generalized Wannier function pseudopotential  |
 |   plane-wave method".                                         |
 |   C.-K. Skylaris, A. A. Mostofi, P. D. Haynes, O. Dieguez,    |
 |   M. C. Payne.                                                |
 |   Phys. Rev. B 66 035119 (2002).                              |
 |                                                               |
 |  "Preconditioned iterative minimization for linear-scaling    |
 |   electronic structure calculations".                         |
 |   A. A. Mostofi, P. D. Haynes, C.-K. Skylaris, M. C. Payne.   |
 |   J. Chem. Phys. 119(17), pp.8842-8848 (2003).                |
 |                                                               |
 |  "Total-energy calculations on a real space grid with         |
 |   localized functions and a plane-wave basis".                |
 |   A. A. Mostofi, C.-K. Skylaris, P. D. Haynes, M. C. Payne.   |
 |   Comput. Phys. Commun. 147, pp.788-802 (2002).               |
 |                                                               |
 |  "Accurate kinetic energy evaluation in electronic structure  |
 |   calculations with localized functions on real space grids"  |
 |   C.-K. Skylaris, A. A. Mostofi, P. D. Haynes, C. J. Pickard, |
 |   M. C. Payne.                                                |
 |   Comput. Phys. Commun. 140, pp.315-322 (2001).               |
 |                                                               |
 |  "Accurate ionic forces and geometry optimization in linear-  |
 |   scaling density-functional theory with local orbitals"      |
 |   N. D. M. Hine, M. Robinson, P. D. Haynes, C.-K. Skylaris,   |
 |   M. C. Payne, and A. A. Mostofi.                             |
 |   Phys. Rev. B 83 195102 (2011).                              |
 |                                                               |
 +---------------------------------------------------------------+

Job started: 31-10-2023 23:34 (+0000)
 
Reading parameters from file "graphite.dat" ...... done

If your calculation crashes here, before "Checking processes and threads..."
is displayed, then your stack size is insufficient.
If so, use "ulimit -s unlimited" at runtime.
You can disable this check with "check_stack_size F".

Checking processes and threads...
   Determining the default number of threads...
      No default threads set at compilation time: defaulting to 1.
      OpenMP library call suggests 8 threads.
      Hybrid MPI-OpenMP compilation detected.
      Number of MPI processes > 1.
      OMP_NUM_THREADS environment variable present and
      its value matches the one obtained from the OpenMP library call.
      Using this value as default.
      Default threads: 8
      Default applies to threads_max and threads_num_fftboxes.
      Settings in the input file override this default.
   ... done

   Running with 128 MPI processes.
   There are 16 MPI processes running on the same node as the root process.
   Each MPI process is using: 
               1 threads for simulation cell FFTs.
               1 threads for parallel FFT box operations.
               8 threads for loops over batched FFT box operations.
               8 threads in other parallel regions.
   MPI Interface: S1 (use mpi_f08) (-DMPI -DUSE_MPI_F08).
   MPI_ASYNC_PROTECTS_NONBLOCKING: Yes. MPI_SUBARRAYS_SUPPORTED: Yes.
   GPU Interface: None.
... done

Basic input checks...
Resetting ngwf_cg_rotate to TRUE for EDFT calculations
... done

Reading geometry and species blocks from file "graphite.dat" ...
  Reading POSITIONS geometry from str.xyz

  <species_atomic_set> block not found: NGWF initialisation set to SOLVE
IS: Dielectric excluded regions:
    - NONE.
IS: Assigning soft sphere radii for soft sphere solvation...
IS: No soft sphere radii specified. Default Alvarez radii used for all atoms.

----------- SOFT SPHERE RADII -----------
Li  5.333
C   4.442
-----------------------------------------

    
  Number of PPD points along a3 set to 1.  This is 
  the default value, it may have been provided also in the input file.
... done


--------------------------------------------------------------------------------
---------------------------------- INPUT FILE ----------------------------------
--------------------------------------------------------------------------------

task geometryoptimization                                                       
geom_method LBFGS                                                               
geom_continuation T                                                             
write_xyz T                                                                     
edft_grand_canonical T                                                          
edft_reference_potential  -4.42 eV                                              
edft_electrode_potential 0.10 V                                                 
edft_nelec_thres 0.000001                                                       
is_dielectric_function soft_sphere                                              
is_implicit_solvent T                                                           
is_smeared_ion_rep T                                                            
is_include_apolar T                                                             
is_solvation_properties F                                                       
is_pbe                    full                                                  
is_pbe_temperature        298.15                                                
is_pbe_bc_debye_screening T                                                     
is_pbe_neutralisation_scheme counterions_auto                                   
is_pbe_energy_tolerance 1E+50                                                   
is_bc_coarseness 5                                                              
is_bc_threshold 1E-9                                                            
is_bulk_permittivity 90.7                                                       
is_solvent_surf_tension 0.0506 N/m                                              
%block sol_ions                                                                 
Li  +1 1.0                                                                      
PF6 -1 1.0                                                                      
%endblock sol_ions                                                              
is_steric_pot_type M                                                            
is_hc_steric_dens_isovalue  0.001                                               
is_hc_steric_smearing         0.4 bohr                                          
is_steric_write T                                                               
%block species_solvent_radius                                                   
Li 3.0                                                                          
C 3.0                                                                           
%endblock species_solvent_radius                                                
multigrid_bc:   P P P                                                           
ion_ion_bc:     P P P                                                           
pspot_bc:       P P P                                                           
smeared_ion_bc: P P P                                                           
mg_max_iters_vcycle 500                                                         
mg_vcyc_smoother_iter_pre 4                                                     
mg_vcyc_smoother_iter_post 4                                                    
mg_max_res_ratio 1000.0                                                         
mg_max_iters_newton 300                                                         
edft                    : T                                                     
edft_smearing_width     : 0.1 eV                                                
spin                    : 0.0                                                   
edft_spin_fix           : 2                                                     
spin_polarized          : T                                                     
cutoff_energy :  1000 eV                                                        
kernel_cutoff : 1000 bohr                                                       
xc_functional PBE                                                               
dispersion 4                                                                    
output_detail VERBOSE                                                           
do_properties T                                                                 
cube_format F                                                                   
dx_format F                                                                     
write_denskern T                                                                
write_tightbox_ngwfs T                                                          
write_hamiltonian T                                                             
%block species                                                                  
Li Li 3  5  8.0                                                                 
C  C  6  4  8.0                                                                 
%endblock species                                                               
%block species_pot                                                              
Li '/work/e89/e89/arihant/pseudo/Li.usp'                                        
C '/work/e89/e89/arihant/pseudo/C.usp'                                          
%endblock species_pot                                                           
%BLOCK LATTICE_CART                                                             
ang                                                                             
34.16920551     0.00000000     0.00000000                                       
0.00000000    19.72760000     0.00000000                                        
0.00000000     0.00000000   100.02798000                                        
%ENDBLOCK LATTICE_CART                                                          
positions_xyz_file str.xyz                                                      
     Hash =  -000007331127411900077080

--------------------------------------------------------------------------------
-------------------------------- END INPUT FILE --------------------------------
--------------------------------------------------------------------------------


 
 ESDF WARNING(1): "ispbeenergytolerance" (esdf_physical) has no units. Assume "hartree".
<<<<<<<<<<<<<<<<<<<<<<<<<<<<<<<<< Full system >>>>>>>>>>>>>>>>>>>>>>>>>>>>>>>>>>
<<<<<<<<<<<<<<<<<<<<<<<<< Pseudopotential information >>>>>>>>>>>>>>>>>>>>>>>>>>
File: /work/e89/e89/arihant/pseudo/Li.usp [ 2001 points up to Gmax=  52.9 (1/bohr)]
  Atomic number:  3;  ionic charge:  3.000000
    Shell 1: l = 0; rc = 1.19 bohr
    Shell 2: l = 0; rc = 1.25 bohr
File: /work/e89/e89/arihant/pseudo/C.usp [ 2001 points up to Gmax=  52.9 (1/bohr)]
  Atomic number:  6;  ionic charge:  4.000000
    Shell 1: l = 0; rc = 1.19 bohr
  Core charge supplied for Nonlinear Core Corrections
<<<<<<<<<<<<<<<<<<<<<<<<<<<<<<<<<<<<<<<<>>>>>>>>>>>>>>>>>>>>>>>>>>>>>>>>>>>>>>>>

-------------------------- Atom counting information ---------------------------
Symbol    Natoms    Nngwfs    Nprojs
  Li        48       240        96
  C        512      2048       512
.......   ......    ......    ......
Totals:    560      2288       608
--------------------------------------------------------------------------------

=============================== PSINC grid sizes ===============================
                      Simulation cell:  143 x  91 x 416
                              FFT-box:  117 x  91 x 117
                                  PPD:   11 x   7 x   1
Grid space d1=  0.451541543008a0 (KE cutoff=  37.25706Eh =1013.81618eV)
Grid space d2=  0.409667706512a0 (KE cutoff=  45.26271Eh =1231.66098eV)
Grid space d3=  0.454388192297a0 (KE cutoff=  36.79171Eh =1001.15326eV)
================================================================================
  
WARNING in cell_grid_distribute:
Average of less than one 23-slab per proc, so workload cannot be
equally balanced between procs.

********************* Fourier parallelisation information **********************
       Coarse grid (whole simulation cell) dimensions:    143    91   416
          Real-space ('12') slabs/proc (min max mean):      3     4     3
         Recip-space ('23') slabs/proc (min max mean):      0     1     0
********************************************************************************

********************* Fourier parallelisation information **********************
       Double grid (whole simulation cell) dimensions:    286   182   832
          Real-space ('12') slabs/proc (min max mean):      6     7     6
         Recip-space ('23') slabs/proc (min max mean):      1     2     1
********************************************************************************

********************* Fourier parallelisation information **********************
         Fine grid (whole simulation cell) dimensions:    288   184   832
          Real-space ('12') slabs/proc (min max mean):      6     7     6
         Recip-space ('23') slabs/proc (min max mean):      1     2     1
         Grid scale modified to satisfy multigrid solver grid constraints
         Grid scale values after modifification:         2.01  2.02  2.00
********************************************************************************
ONETEP fine grid is 288 x 184 x 832 gridpoints, 64.5704 x 37.2798 x 189.0255 bohr.
FD multigrid is     288 x 184 x 832 gridpoints, 64.5704 x 37.2798 x 189.0255 bohr.


Atom SCF Calculation for Li : Z (AE atom) =   3 : Z (PS atom) =   3
Config String:
Orbitals (num,occ):  3     2.00 1.00 0.00
Orbitals   (num,l):  3        0    0    1
Real-space Grid (nr,dr,rmax): 1343    0.0059612519    8.0000000000
Spherical Bessel Basis (nsws,lmax,cutoff):   37    1  220.4959463253
Confining potential (l,width,scale):  0    3.0000000000  100.0000000000
Confining potential (l,width,scale):  1    3.0000000000  100.0000000000
  1         -3.7050169094   -5.2301177776    2.5388568852   -0.9989538802
  2         -6.0510920273   -4.2679357854    3.2724001845   -1.3422946715
  3         -6.7975021434   -3.8722499620    3.6648237887   -1.5325279919
  4         -7.0147472228   -3.7673066376    3.7864613280   -1.5966989055
  5         -7.0774132854   -3.7446783348    3.8157063634   -1.6161454686
  6         -7.0951992563   -3.7420177453    3.8204515040   -1.6217593843
  7         -7.1001226024   -3.7430426481    3.8200527077   -1.6233132433
  8         -7.1014239576   -3.7441529610    3.8191274553   -1.6237164860
  9         -7.1017352306   -3.7448434699    3.8184905098   -1.6238077213
 10         -7.1017916056   -3.7452114113    3.8181373932   -1.6238209669
 11         -7.1017908912   -3.7453946820    3.8179578223   -1.6238181917
 12         -7.1017822190   -3.7454828903    3.8178702968   -1.6238141227
 13         -7.1017768840   -3.7455162316    3.8178369316   -1.6238119017
 14         -7.1017732849   -3.7455353767    3.8178176959   -1.6238104459
 15         -7.1017709700   -3.7455463461    3.8178066371   -1.6238095253
 16         -7.1017695244   -3.7455526225    3.8178002910   -1.6238089565
 17         -7.1017686390   -3.7455562110    3.8177966534   -1.6238086105
 18         -7.1017681040   -3.7455582619    3.8177945697   -1.6238084022
 19         -7.1017677838   -3.7455594341    3.8177933764   -1.6238082778
 20         -7.1017675934   -3.7455601042    3.8177926929   -1.6238082039
 21         -7.1017674808   -3.7455604874    3.8177923014   -1.6238081602
 22         -7.1017674145   -3.7455607066    3.8177920771   -1.6238081344
Atom SCF converged after  22 iterations to a total energy of     -7.10176741

Atom SCF Calculation for C  : Z (AE atom) =   6 : Z (PS atom) =   4
Config String:
Orbitals (num,occ):  2     2.00 2.00
Orbitals   (num,l):  2        0    1
Real-space Grid (nr,dr,rmax): 1343    0.0059612519    8.0000000000
Spherical Bessel Basis (nsws,lmax,cutoff):   37    1  220.4959463253
Confining potential (l,width,scale):  0    3.0000000000  100.0000000000
Confining potential (l,width,scale):  1    3.0000000000  100.0000000000
  1         -5.8177092822   -1.2555419264    4.5135233515   -1.7471920893
  2         -5.6032261188   -1.3440047989    4.4246587726   -1.7090653419
  3         -5.5936068668   -1.3561735374    4.4140765627   -1.7034094417
  4         -5.5958505747   -1.3587284552    4.4121342699   -1.7022848669
  5         -5.5969687665   -1.3601698222    4.4109982405   -1.7017057890
  6         -5.5975400979   -1.3609792837    4.4103423276   -1.7013975981
  7         -5.5978435204   -1.3614297943    4.4099696476   -1.7012314972
  8         -5.5980096069   -1.3616786122    4.4097605138   -1.7011416075
  9         -5.5981021113   -1.3618152853    4.4096441572   -1.7010929151
 10         -5.5981539939   -1.3618900852    4.4095797860   -1.7010665406
 11         -5.5981831160   -1.3619309228    4.4095443105   -1.7010522599
 12         -5.5981994243   -1.3619531807    4.4095248124   -1.7010445305
 13         -5.5982085235   -1.3619652972    4.4095141175   -1.7010403487
 14         -5.5982135796   -1.3619718867    4.4095082606   -1.7010380870
 15         -5.5982163780   -1.3619754676    4.4095050573   -1.7010368642
 16         -5.5982179208   -1.3619774123    4.4095033073   -1.7010362032
 17         -5.5982187685   -1.3619784678    4.4095023522   -1.7010358460
 18         -5.5982192328   -1.3619790404    4.4095018314   -1.7010356530
 19         -5.5982194864   -1.3619793509    4.4095015476   -1.7010355488
 20         -5.5982196245   -1.3619795192    4.4095013931   -1.7010354925
 21         -5.5982196995   -1.3619796104    4.4095013090   -1.7010354621
Atom SCF converged after  21 iterations to a total energy of     -5.59821970

BC: Task: GEOMETRYOPTIMIZATION
BC: +++++++++++++++ Summary of boundary conditions ++++++++++++++
BC: |       Component       |     Keyword     |   Periodicity   |
BC: |                       |                 |     X  Y  Z [1] |
BC: |-----------------------------------------------------------|
BC: | Ion-ion               | ion_ion_bc [2]  |     P  P  P     |
BC: | Local pseudopotential | pspot_bc [3]    |     P  P  P     |
BC: | Multigrid solver      | multigrid_bc    |     P  P  P     |
BC: | Smeared ions          | smeared_ion_bc  |     P  P  P     |
BC: | Van der Waals         | vdw_bc          |     P  P  P     |
BC: +++++++++++++++++++++++++++++++++++++++++++++++++++++++++++++
BC: P: Periodic, O: Open.
BC: [1] Not strictly along X, Y, Z but rather along lattice vectors A1, A2, A3.
BC: [2] Also affected by: pbc_correction_cutoff, cutoff_coulomb_type,
BC:     is_smeared_ion_rep, is_implicit_solvent, openbc_ion_ion.
BC: [3] Also affected by: is_smeared_ion_rep, is_implicit_solvent, openbc_pspot.

================================================================================
<<<<<<<<<<<<<<<< Resuming previous ONETEP Geometry Optimisation >>>>>>>>>>>>>>>>
================================================================================

 Geometry Optimisation: output file is "graphite.geom"
 
 Reading continuation file "graphite.continuation" ...done
 Geometry Optimisation: read_tightbox_ngwfs parameter over-ridden to TRUE
 Geometry Optimisation: read_hamiltonian parameter over-ridden to T
 
                           -------------------------------
                                     Cell Contents
                           -------------------------------
 
            xxxxxxxxxxxxxxxxxxxxxxxxxxxxxxxxxxxxxxxxxxxxxxxxxxxxxxxxxxxx
            x  Element    Atom      Absolute co-ordinates of atoms     x
            x            Number        x           y           z       x
            x----------------------------------------------------------x
            x    Li        1        0.045224   37.148270   16.471269   x
            x    Li        2        0.045398   27.826176   16.471827   x
            x    Li        3        0.045005   18.501866   16.471244   x
            x    Li        4        0.044528    9.185224   16.470213   x
            x    Li        5       32.407272   37.147331   16.471971   x
            x    Li        6       32.406849   27.826211   16.470886   x
            x    Li        7       32.408055   18.502992   16.471939   x
            x    Li        8       32.408576    9.185344   16.472554   x
            x    Li        9       16.234078    9.188236   16.459697   x
            x    Li       10       16.234145   18.496417   16.462780   x
            x    Li       11       16.234299   27.825312   16.471154   x
            x    Li       12       16.234028   37.152054   16.469101   x
            x    Li       13       48.478849   37.141692   16.464299   x
            x    Li       14       48.478746   27.828603   16.461081   x
            x    Li       15       48.478857   18.506778   16.470679   x
            x    Li       16       48.478886    9.184418   16.472655   x
            x    C        17       18.932108    9.196442   12.909380   x
            x    C        18       13.511299    9.196318   12.913782   x
            x    C        19       14.862288   11.539372   12.917923   x
            x    C        20       17.581413   11.539417   12.916026   x
            x    C        21       51.214133   27.836261   12.915128   x
            x    C        22       45.795627   27.836410   12.913040   x
            x    C        23       47.144843   30.179373   12.918036   x
            x    C        24       49.864833   30.179152   12.919660   x
            x    C        25       14.861743    6.851993   12.921015   x
            x    C        26       17.581691    6.851955   12.919087   x
            x    C        27       21.600799   13.856250   12.936774   x
            x    C        28       18.923013   13.855155   12.907309   x
            x    C        29       13.519887   13.855213   12.911261   x
            x    C        30       14.862074   16.171254   12.924384   x
            x    C        31       17.581353   16.171235   12.922360   x
            x    C        32       47.144570   25.491916   12.920858   x
            x    C        33       49.865068   25.492308   12.922310   x
            x    C        34       53.882221   32.496351   12.945839   x
            x    C        35       51.205540   32.495388   12.913849   x
            x    C        36       45.804294   32.495176   12.912010   x
            x    C        37       47.144611   34.811285   12.924726   x
            x    C        38       49.865064   34.811745   12.926155   x
            x    C        39       14.862086    2.220458   12.925272   x
            x    C        40       17.581344    2.220474   12.923335   x
            x    C        41       22.943866    2.202576   12.942415   x
            x    C        42        9.499191    2.202494   12.946449   x
            x    C        43       63.286423    2.220229   12.929192   x
            x    C        44        6.797533    2.202138   12.948973   x
            x    C        45       31.005706    2.219832   12.934565   x
            x    C        46        1.435476    2.219810   12.932566   x
            x    C        47       25.645671    2.202311   12.949468   x
            x    C        48       33.725927    2.219917   12.930408   x
            x    C        49       39.085229    2.201921   12.947057   x
            x    C        50       55.223816    2.202030   12.946684   x
            x    C        51       57.925301    2.202540   12.943692   x
            x    C        52       47.144752    2.220049   12.924616   x
            x    C        53       41.786394    2.201987   12.947744   x
            x    C        54       49.864929    2.219698   12.925799   x
            x    C        55       18.923045    4.535741   12.908376   x
            x    C        56       13.519981    4.535669   12.912414   x
            x    C        57       10.842405    4.536794   12.943948   x
            x    C        58       26.987629    4.536684   12.954381   x
            x    C        59        5.455092    4.536635   12.952939   x
            x    C        60       21.600478    4.536865   12.939968   x
            x    C        61       59.267877    4.537169   12.945392   x
            x    C        62        2.777243    4.535429   12.924004   x
            x    C        63       35.066232    4.535594   12.921311   x
            x    C        64       61.945005    4.535870   12.918565   x
            x    C        65       29.664567    4.535645   12.927340   x
            x    C        66       43.128010    4.536576   12.951980   x
            x    C        67       51.204943    4.535797   12.921115   x
            x    C        68       37.743301    4.537004   12.951328   x
            x    C        69       53.882264    4.536665   12.953459   x
            x    C        70       45.804663    4.535794   12.920203   x
            x    C        71       22.943942    6.870797   12.932125   x
            x    C        72       63.285816    6.852036   12.931965   x
            x    C        73        6.798493    6.870653   12.940923   x
            x    C        74       31.005657    6.852602   12.938366   x
            x    C        75       39.085570    6.870570   12.943207   x
            x    C        76       57.924822    6.870705   12.939147   x
            x    C        77        1.435715    6.852498   12.935288   x
            x    C        78        9.499186    6.870523   12.936088   x
            x    C        79       25.644912    6.870789   12.941622   x
            x    C        80       33.726341    6.852119   12.934351   x
            x    C        81       55.224354    6.870992   12.943820   x
            x    C        82       47.144529    6.852222   12.933868   x
            x    C        83       41.785922    6.870423   12.945493   x
            x    C        84       49.864781    6.852628   12.934895   x
            x    C        85       51.214028    9.196326   12.928659   x
            x    C        86       59.255898    9.196193   12.903244   x
            x    C        87        2.786337    9.196550   12.927052   x
            x    C        88       26.977086    9.196292   12.909760   x
            x    C        89       35.076020    9.196490   12.923394   x
            x    C        90       43.115693    9.195914   12.911089   x
            x    C        91       53.893671    9.196102   12.911388   x
            x    C        92       61.935990    9.196618   12.921907   x
            x    C        93        5.465722    9.196145   12.908308   x
            x    C        94       21.612666    9.196038   12.894181   x
            x    C        95       29.655960    9.196476   12.931232   x
            x    C        96       37.755400    9.196006   12.907359   x
            x    C        97       45.795548    9.196054   12.927674   x
            x    C        98       10.830903    9.195819   12.898469   x
            x    C        99       47.144660   11.539616   12.932900   x
            x    C       100       55.224071   11.521772   12.948016   x
            x    C       101       63.286354   11.540213   12.927665   x
            x    C       102       31.005704   11.539708   12.933625   x
            x    C       103       39.084853   11.521974   12.946179   x
            x    C       104       49.864591   11.539175   12.933900   x
            x    C       105       57.925366   11.522317   12.942349   x
            x    C       106        1.435520   11.539632   12.930771   x
            x    C       107       33.726038   11.540026   12.929855   x
            x    C       108       41.786155   11.521824   12.949543   x
            x    C       109        6.798219   11.521933   12.942682   x
            x    C       110       22.943624   11.521993   12.934506   x
            x    C       111       25.645032   11.522094   12.943350   x
            x    C       112        9.499672   11.521853   12.938441   x
            x    C       113       45.804559   13.855239   12.925428   x
            x    C       114       43.127978   13.856599   12.954028   x
            x    C       115       51.204984   13.855482   12.926161   x
            x    C       116       59.268173   13.856652   12.943836   x
            x    C       117       35.066029   13.855931   12.919726   x
            x    C       118       53.882230   13.856634   12.955457   x
            x    C       119       61.945315   13.855921   12.917330   x
            x    C       120       29.664584   13.856101   12.924856   x
            x    C       121       37.743036   13.856638   12.949504   x
            x    C       122        2.777448   13.856057   12.921658   x
            x    C       123       26.987397   13.856921   12.950218   x
            x    C       124        5.455194   13.856901   12.948937   x
            x    C       125       10.842231   13.856319   12.940746   x
            x    C       126       47.144526   16.171619   12.936104   x
            x    C       127       55.224690   16.190853   12.944796   x
            x    C       128       41.785659   16.190426   12.946122   x
            x    C       129       49.864879   16.172035   12.937174   x
            x    C       130       39.085233   16.190534   12.942948   x
            x    C       131       63.286574   16.172060   12.932168   x
            x    C       132       31.005781   16.172669   12.936935   x
            x    C       133       57.924997   16.190516   12.939545   x
            x    C       134       33.725689   16.172277   12.933302   x
            x    C       135        6.798135   16.190616   12.939583   x
            x    C       136        1.435564   16.172451   12.934947   x
            x    C       137       25.645169   16.190883   12.939982   x
            x    C       138       22.944138   16.190149   12.932293   x
            x    C       139        9.499153   16.190045   12.936296   x
            x    C       140       51.214264   18.516307   12.927505   x
            x    C       141       45.795136   18.516411   12.926096   x
            x    C       142       43.115617   18.515952   12.910732   x
            x    C       143       53.893742   18.515823   12.911627   x
            x    C       144       35.075415   18.516238   12.923427   x
            x    C       145       59.256443   18.516358   12.905394   x
            x    C       146       37.755052   18.516492   12.908216   x
            x    C       147       61.936504   18.516206   12.923643   x
            x    C       148       29.656105   18.516265   12.930837   x
            x    C       149        2.786319   18.516462   12.928105   x
            x    C       150       26.976545   18.516042   12.910868   x
            x    C       151        5.466146   18.515887   12.910242   x
            x    C       152       10.830771   18.516226   12.903928   x
            x    C       153       18.932307   18.515717   12.914571   x
            x    C       154       21.612690   18.516464   12.899350   x
            x    C       155       13.511401   18.515615   12.919252   x
            x    C       156       47.144616   20.860071   12.925516   x
            x    C       157       49.864691   20.859831   12.926899   x
            x    C       158       55.223787   20.842231   12.947083   x
            x    C       159       41.786502   20.842323   12.947244   x
            x    C       160       31.005788   20.859637   12.933959   x
            x    C       161       39.084850   20.842117   12.946304   x
            x    C       162       63.286601   20.860122   12.929932   x
            x    C       163       33.725776   20.859929   12.929844   x
            x    C       164       57.925590   20.842422   12.944091   x
            x    C       165        1.435551   20.859512   12.933205   x
            x    C       166        6.797838   20.841916   12.949441   x
            x    C       167       22.943847   20.842028   12.941945   x
            x    C       168       25.645279   20.842050   12.949013   x
            x    C       169       14.862262   20.859776   12.924519   x
            x    C       170        9.499312   20.841792   12.946769   x
            x    C       171       17.581275   20.859942   12.922241   x
            x    C       172       51.205277   23.175509   12.914505   x
            x    C       173       45.804386   23.175532   12.912835   x
            x    C       174       43.128309   23.176720   12.945814   x
            x    C       175       59.268412   23.176610   12.944904   x
            x    C       176       37.742709   23.176464   12.948528   x
            x    C       177       53.882045   23.176821   12.948855   x
            x    C       178       26.987167   23.176859   12.955284   x
            x    C       179       35.066115   23.175393   12.919705   x
            x    C       180        2.777250   23.175423   12.925421   x
            x    C       181       29.664430   23.175589   12.926478   x
            x    C       182       61.945139   23.175325   12.919580   x
            x    C       183       10.842320   23.176540   12.950124   x
            x    C       184       18.922634   23.175451   12.914747   x
            x    C       185        5.455456   23.176767   12.955559   x
            x    C       186       21.600719   23.176731   12.945007   x
            x    C       187       13.520395   23.175505   12.919511   x
            x    C       188       55.224040   25.510600   12.937564   x
            x    C       189       31.005260   25.492534   12.936501   x
            x    C       190       39.085762   25.510528   12.938654   x
            x    C       191       63.286189   25.491871   12.933577   x
            x    C       192        6.798253   25.510614   12.946322   x
            x    C       193       25.644948   25.510660   12.945291   x
            x    C       194       33.725988   25.491976   12.932383   x
            x    C       195       41.786403   25.510501   12.937220   x
            x    C       196       57.924677   25.510508   12.937011   x
            x    C       197        1.435997   25.492279   12.936976   x
            x    C       198       22.944262   25.510489   12.939944   x
            x    C       199       14.861956   25.492029   12.933593   x
            x    C       200        9.498871   25.510400   12.945238   x
            x    C       201       17.581467   25.491992   12.931266   x
            x    C       202       18.932025   27.836294   12.923365   x
            x    C       203       26.976229   27.836020   12.911683   x
            x    C       204       35.075657   27.836498   12.921473   x
            x    C       205       59.256615   27.835984   12.902602   x
            x    C       206        2.786372   27.836495   12.928884   x
            x    C       207       10.830924   27.835729   12.911273   x
            x    C       208       21.612361   27.835876   12.906008   x
            x    C       209       29.655922   27.836422   12.929806   x
            x    C       210       37.754906   27.836014   12.904068   x
            x    C       211       53.893986   27.835937   12.901205   x
            x    C       212       61.936143   27.836444   12.923452   x
            x    C       213        5.466339   27.835839   12.912436   x
            x    C       214       13.511480   27.835993   12.928368   x
            x    C       215       43.115821   27.835791   12.899153   x
            x    C       216       14.862163   30.179538   12.932547   x
            x    C       217       22.943922   30.161882   12.944044   x
            x    C       218       31.005677   30.179715   12.932312   x
            x    C       219       63.286409   30.180383   12.929012   x
            x    C       220        6.797557   30.161889   12.949383   x
            x    C       221       17.581243   30.179755   12.930310   x
            x    C       222       25.645530   30.162265   12.948478   x
            x    C       223       33.725766   30.180064   12.927958   x
            x    C       224        1.435577   30.179618   12.932577   x
            x    C       225        9.499077   30.161701   12.949193   x
            x    C       226       39.085553   30.162123   12.940587   x
            x    C       227       55.223608   30.161955   12.940125   x
            x    C       228       57.925073   30.162292   12.938759   x
            x    C       229       41.786854   30.161856   12.939725   x
            x    C       230       13.520249   32.495400   12.924388   x
            x    C       231       10.842150   32.496469   12.951947   x
            x    C       232       18.922786   32.495399   12.919752   x
            x    C       233       26.987415   32.496650   12.953682   x
            x    C       234        2.777101   32.495879   12.923977   x
            x    C       235       21.600805   32.496757   12.946894   x
            x    C       236       29.664708   32.496014   12.925189   x
            x    C       237       61.945156   32.496231   12.917140   x
            x    C       238        5.455140   32.496546   12.953809   x
            x    C       239       35.066357   32.496179   12.917564   x
            x    C       240       59.268176   32.496934   12.940835   x
            x    C       241       37.742908   32.496580   12.944724   x
            x    C       242       43.128346   32.496047   12.942726   x
            x    C       243       14.861993   34.811679   12.935878   x
            x    C       244       22.944480   34.830602   12.939993   x
            x    C       245        9.498425   34.830296   12.944876   x
            x    C       246       17.581410   34.811541   12.933601   x
            x    C       247        6.798092   34.830464   12.945123   x
            x    C       248       31.005648   34.812774   12.936983   x
            x    C       249       63.286228   34.812003   12.932389   x
            x    C       250       25.645141   34.830414   12.944796   x
            x    C       251        1.435486   34.812661   12.936172   x
            x    C       252       39.085225   34.830471   12.936941   x
            x    C       253       33.726011   34.812080   12.932393   x
            x    C       254       57.925180   34.830547   12.934645   x
            x    C       255       55.224166   34.830208   12.936900   x
            x    C       256       41.786399   34.829910   12.936957   x
            x    C       257       18.932294   37.156386   12.921892   x
            x    C       258       13.511068   37.156182   12.926531   x
            x    C       259       10.830784   37.155563   12.910013   x
            x    C       260       21.612770   37.155710   12.905447   x
            x    C       261        2.785881   37.156274   12.928944   x
            x    C       262       26.976874   37.156308   12.913152   x
            x    C       263        5.465783   37.156049   12.912571   x
            x    C       264       29.656544   37.156131   12.931620   x
            x    C       265       61.936106   37.156380   12.922988   x
            x    C       266       35.075908   37.156242   12.922773   x
            x    C       267       59.256386   37.155981   12.903154   x
            x    C       268       37.755124   37.155657   12.905948   x
            x    C       269       43.115861   37.156147   12.904326   x
            x    C       270       51.214422   37.155729   12.920147   x
            x    C       271       53.893856   37.156321   12.905572   x
            x    C       272       45.795220   37.155513   12.918635   x
            x    Li      273        0.056463   37.128540    9.394624   x
            x    Li      274        0.056824   27.807887    9.394785   x
            x    Li      275        0.056891   18.485430    9.394478   x
            x    Li      276        0.056689    9.166366    9.393141   x
            x    Li      277        8.140215   32.467620    9.389229   x
            x    Li      278        8.140386   23.150101    9.389474   x
            x    Li      279        8.139154   13.831843    9.381489   x
            x    Li      280        8.140036    4.507629    9.385376   x
            x    Li      281       16.226008    9.164484    9.381058   x
            x    Li      282       16.225884   18.486212    9.385467   x
            x    Li      283       16.225859   27.807934    9.394605   x
            x    Li      284       16.225990   37.128798    9.392322   x
            x    Li      285       24.312665   32.467760    9.386618   x
            x    Li      286       24.312791   23.150020    9.386650   x
            x    Li      287       24.314288   13.831777    9.379820   x
            x    Li      288       24.313383    4.507861    9.383873   x
            x    Li      289       32.383092   37.128954    9.394685   x
            x    Li      290       32.382568   27.807771    9.393138   x
            x    Li      291       32.382451   18.485033    9.394646   x
            x    Li      292       32.382760    9.166136    9.395026   x
            x    Li      293       40.440536   32.468058    9.380433   x
            x    Li      294       40.441591   23.149518    9.384192   x
            x    Li      295       40.441945   13.831316    9.387955   x
            x    Li      296       40.441876    4.508197    9.388106   x
            x    Li      297       48.488072   37.129897    9.385703   x
            x    Li      298       48.488288   27.806181    9.381050   x
            x    Li      299       48.488103   18.485205    9.392518   x
            x    Li      300       48.487719    9.165966    9.394680   x
            x    Li      301       56.547872   32.468072    9.379647   x
            x    Li      302       56.546808   23.149809    9.383562   x
            x    Li      303       56.546296   13.831514    9.385916   x
            x    Li      304       56.546243    4.508387    9.385882   x
            x    C       305       18.914998    9.194003    5.840883   x
            x    C       306       13.526756    9.193914    5.842333   x
            x    C       307       14.870634   11.528796    5.851215   x
            x    C       308       17.570591   11.528634    5.851609   x
            x    C       309       51.199115   27.833850    5.840691   x
            x    C       310       45.811720   27.833859    5.838043   x
            x    C       311       47.155605   30.168708    5.848687   x
            x    C       312       49.855310   30.168442    5.851260   x
            x    C       313       14.870289    6.858508    5.842877   x
            x    C       314       17.571019    6.858658    5.843301   x
            x    C       315       21.599305   13.854038    5.824897   x
            x    C       316       18.909167   13.853783    5.865254   x
            x    C       317       13.532428   13.853618    5.866089   x
            x    C       318       14.870425   16.178246    5.848038   x
            x    C       319       17.570813   16.178534    5.848363   x
            x    C       320       47.155182   25.498346    5.840575   x
            x    C       321       49.855516   25.498705    5.843168   x
            x    C       322       53.882958   32.493848    5.819717   x
            x    C       323       51.193155   32.493630    5.863419   x
            x    C       324       45.817634   32.493548    5.863307   x
            x    C       325       47.155330   34.817975    5.846434   x
            x    C       326       49.855565   34.818539    5.848948   x
            x    C       327       14.870773    2.208974    5.855105   x
            x    C       328       17.570436    2.208820    5.855411   x
            x    C       329       22.942619    2.198922    5.819436   x
            x    C       330        9.498377    2.198940    5.820995   x
            x    C       331       63.297770    2.209277    5.860070   x
            x    C       332        6.798618    2.198460    5.821132   x
            x    C       333       31.014014    2.208974    5.861791   x
            x    C       334        1.426584    2.208694    5.863247   x
            x    C       335       25.642379    2.198900    5.819718   x
            x    C       336       33.713473    2.208832    5.860550   x
            x    C       337       39.084682    2.198840    5.820928   x
            x    C       338       55.226551    2.199089    5.815482   x
            x    C       339       57.926162    2.199516    5.821145   x
            x    C       340       47.155589    2.209170    5.850872   x
            x    C       341       41.784193    2.199117    5.819194   x
            x    C       342       49.855066    2.208848    5.852984   x
            x    C       343       18.909236    4.533655    5.863495   x
            x    C       344       13.532274    4.533575    5.864283   x
            x    C       345       10.842426    4.534112    5.825470   x
            x    C       346       26.986437    4.534229    5.826563   x
            x    C       347        5.454963    4.534127    5.829833   x
            x    C       348       21.599289    4.534305    5.826310   x
            x    C       349       59.269253    4.534707    5.831756   x
            x    C       350        2.764947    4.533770    5.873352   x
            x    C       351       35.051784    4.533780    5.872347   x
            x    C       352       61.959214    4.534114    5.873232   x
            x    C       353       29.676268    4.533810    5.873064   x
            x    C       354       43.127832    4.534239    5.827323   x
            x    C       355       51.192770    4.534200    5.866241   x
            x    C       356       37.741923    4.534404    5.831814   x
            x    C       357       53.883019    4.534444    5.824424   x
            x    C       358       45.817897    4.534065    5.867294   x
            x    C       359       22.942811    6.869042    5.820613   x
            x    C       360       63.297089    6.859047    5.854392   x
            x    C       361        6.799285    6.868973    5.823425   x
            x    C       362       31.013778    6.858923    5.856987   x
            x    C       363       39.085131    6.869212    5.827349   x
            x    C       364       57.925740    6.869203    5.827073   x
            x    C       365        1.427129    6.859249    5.857156   x
            x    C       366        9.498393    6.868722    5.822109   x
            x    C       367       25.641823    6.868976    5.822057   x
            x    C       368       33.714101    6.859181    5.856439   x
            x    C       369       55.226866    6.869413    5.823282   x
            x    C       370       47.155197    6.858808    5.852669   x
            x    C       371       41.783859    6.868663    5.827077   x
            x    C       372       49.855331    6.859258    5.854773   x
            x    C       373       51.198494    9.194331    5.853008   x
            x    C       374       59.263334    9.194307    5.853504   x
            x    C       375        2.770666    9.194349    5.852995   x
            x    C       376       26.980156    9.194015    5.850397   x
            x    C       377       35.057743    9.194271    5.851038   x
            x    C       378       43.121579    9.193871    5.854051   x
            x    C       379       53.888812    9.193984    5.853743   x
            x    C       380       61.953654    9.194650    5.850161   x
            x    C       381        5.460949    9.193898    5.853118   x
            x    C       382       21.605137    9.193755    5.847434   x
            x    C       383       29.670640    9.194326    5.853519   x
            x    C       384       37.747749    9.194063    5.855226   x
            x    C       385       45.812089    9.194104    5.851128   x
            x    C       386       10.836263    9.193596    5.847440   x
            x    C       387       47.155540   11.528617    5.860398   x
            x    C       388       55.226543   11.518715    5.818639   x
            x    C       389       63.297604   11.529263    5.858536   x
            x    C       390       31.014011   11.529136    5.860540   x
            x    C       391       39.084661   11.518608    5.821726   x
            x    C       392       49.854927   11.528306    5.862441   x
            x    C       393       57.926113   11.519156    5.821672   x
            x    C       394        1.426824   11.528873    5.860882   x
            x    C       395       33.713590   11.528891    5.860543   x
            x    C       396       41.784184   11.518805    5.822242   x
            x    C       397        6.799019   11.518599    5.816436   x
            x    C       398       22.942428   11.518618    5.814881   x
            x    C       399       25.642181   11.518957    5.814854   x
            x    C       400        9.498896   11.518669    5.816625   x
            x    C       401       45.817790   13.853330    5.872495   x
            x    C       402       43.127809   13.853807    5.829125   x
            x    C       403       51.192759   13.853374    5.871706   x
            x    C       404       59.269489   13.854199    5.830739   x
            x    C       405       35.051575   13.854077    5.871313   x
            x    C       406       53.882860   13.854106    5.826593   x
            x    C       407       61.959385   13.854226    5.872068   x
            x    C       408       29.676136   13.854219    5.870239   x
            x    C       409       37.741725   13.854010    5.830655   x
            x    C       410        2.765123   13.854331    5.870714   x
            x    C       411       26.986326   13.854485    5.822174   x
            x    C       412        5.455238   13.854374    5.825697   x
            x    C       413       10.842472   13.853867    5.824309   x
            x    C       414       47.155226   16.178264    5.854510   x
            x    C       415       55.227051   16.189065    5.822743   x
            x    C       416       41.783724   16.188593    5.825948   x
            x    C       417       49.855408   16.178642    5.856775   x
            x    C       418       39.084885   16.188927    5.825966   x
            x    C       419       63.297759   16.179030    5.854475   x
            x    C       420       31.013639   16.179148    5.855371   x
            x    C       421       57.925922   16.188891    5.826468   x
            x    C       422       33.713505   16.179254    5.855313   x
            x    C       423        6.799205   16.189303    5.820866   x
            x    C       424        1.427232   16.179464    5.856823   x
            x    C       425       25.641914   16.189214    5.819100   x
            x    C       426       22.942845   16.188932    5.819320   x
            x    C       427        9.498351   16.188580    5.821015   x
            x    C       428       51.198681   18.514107    5.850877   x
            x    C       429       45.811909   18.513966    5.848719   x
            x    C       430       43.121346   18.513675    5.851644   x
            x    C       431       53.889077   18.513679    5.852122   x
            x    C       432       35.057189   18.514123    5.850838   x
            x    C       433       59.263867   18.514130    5.854394   x
            x    C       434       37.747152   18.513963    5.854887   x
            x    C       435       61.954255   18.514167    5.851667   x
            x    C       436       29.670589   18.514391    5.853450   x
            x    C       437        2.770761   18.514238    5.854349   x
            x    C       438       26.980104   18.514050    5.851140   x
            x    C       439        5.461130   18.513765    5.854668   x
            x    C       440       10.836282   18.513932    5.849765   x
            x    C       441       18.914635   18.513885    5.844156   x
            x    C       442       21.605279   18.514166    5.849343   x
            x    C       443       13.527112   18.513868    5.845883   x
            x    C       444       47.155572   20.848936    5.853348   x
            x    C       445       49.855084   20.848674    5.855727   x
            x    C       446       55.226625   20.838685    5.816676   x
            x    C       447       41.784192   20.838848    5.818970   x
            x    C       448       31.013806   20.848872    5.861790   x
            x    C       449       39.084471   20.838530    5.820724   x
            x    C       450       63.298128   20.849004    5.860945   x
            x    C       451       33.713136   20.848654    5.861049   x
            x    C       452       57.926410   20.839029    5.822016   x
            x    C       453        1.427038   20.848690    5.863924   x
            x    C       454        6.798887   20.838881    5.822090   x
            x    C       455       22.942605   20.839085    5.819320   x
            x    C       456       25.642257   20.839137    5.819762   x
            x    C       457       14.870692   20.849078    5.854058   x
            x    C       458        9.498624   20.839202    5.821895   x
            x    C       459       17.570548   20.848814    5.854129   x
            x    C       460       51.193212   23.173449    5.861643   x
            x    C       461       45.817591   23.173542    5.861533   x
            x    C       462       43.127894   23.173982    5.822159   x
            x    C       463       59.269920   23.174097    5.830871   x
            x    C       464       37.741284   23.173817    5.829408   x
            x    C       465       53.882949   23.174231    5.821095   x
            x    C       466       26.985915   23.174447    5.828103   x
            x    C       467       35.051343   23.173583    5.871333   x
            x    C       468        2.765537   23.173872    5.875292   x
            x    C       469       29.675631   23.173951    5.873249   x
            x    C       470       61.959656   23.173629    5.873845   x
            x    C       471       10.842508   23.174279    5.831156   x
            x    C       472       18.909053   23.174042    5.869494   x
            x    C       473        5.455559   23.174398    5.832651   x
            x    C       474       21.599273   23.174460    5.830568   x
            x    C       475       13.532553   23.174085    5.871238   x
            x    C       476       55.226794   25.509075    5.817128   x
            x    C       477       31.013195   25.499065    5.855846   x
            x    C       478       39.085188   25.508914    5.822060   x
            x    C       479       63.297701   25.498679    5.855598   x
            x    C       480        6.799178   25.509268    5.827648   x
            x    C       481       25.641832   25.509143    5.825000   x
            x    C       482       33.713432   25.498927    5.854428   x
            x    C       483       41.784028   25.508654    5.819163   x
            x    C       484       57.925762   25.508619    5.823555   x
            x    C       485        1.427606   25.499110    5.859280   x
            x    C       486       22.942783   25.509084    5.826199   x
            x    C       487       14.870381   25.498836    5.855733   x
            x    C       488        9.498263   25.508787    5.829003   x
            x    C       489       17.570813   25.499196    5.855663   x
            x    C       490       18.914465   27.834159    5.852878   x
            x    C       491       26.979706   27.834100    5.852504   x
            x    C       492       35.057204   27.834315    5.847825   x
            x    C       493       59.263672   27.833945    5.850380   x
            x    C       494        2.771077   27.834352    5.855374   x
            x    C       495       10.836419   27.833800    5.856854   x
            x    C       496       21.604976   27.833898    5.855783   x
            x    C       497       29.670208   27.834271    5.852782   x
            x    C       498       37.747503   27.833723    5.850019   x
            x    C       499       53.889236   27.833790    5.844438   x
            x    C       500       61.954271   27.834296    5.850277   x
            x    C       501        5.461355   27.833924    5.856912   x
            x    C       502       13.527203   27.834095    5.855092   x
            x    C       503       43.121528   27.833449    5.843328   x
            x    C       504       14.870840   30.168587    5.863182   x
            x    C       505       22.942570   30.158662    5.821450   x
            x    C       506       31.013627   30.168957    5.859923   x
            x    C       507       63.298104   30.169270    5.859243   x
            x    C       508        6.798855   30.158525    5.821766   x
            x    C       509       17.570353   30.168468    5.863090   x
            x    C       510       25.642171   30.158905    5.819362   x
            x    C       511       33.713163   30.168853    5.858250   x
            x    C       512        1.427069   30.168639    5.863132   x
            x    C       513        9.498460   30.158812    5.824047   x
            x    C       514       39.084880   30.158608    5.815192   x
            x    C       515       55.226516   30.158434    5.811327   x
            x    C       516       57.926118   30.159039    5.816596   x
            x    C       517       41.784489   30.158465    5.813676   x
            x    C       518       13.532383   32.493195    5.876631   x
            x    C       519       10.842370   32.493705    5.833065   x
            x    C       520       18.908960   32.493308    5.874727   x
            x    C       521       26.986074   32.494136    5.827164   x
            x    C       522        2.765135   32.493967    5.874138   x
            x    C       523       21.599215   32.493979    5.832571   x
            x    C       524       29.675865   32.494142    5.872307   x
            x    C       525       61.959515   32.494176    5.871433   x
            x    C       526        5.455255   32.493935    5.831293   x
            x    C       527       35.051466   32.494060    5.868928   x
            x    C       528       59.269739   32.494397    5.826765   x
            x    C       529       37.741445   32.494246    5.825577   x
            x    C       530       43.128046   32.493700    5.821037   x
            x    C       531       14.870292   34.818280    5.858002   x
            x    C       532       22.942955   34.828821    5.826548   x
            x    C       533        9.498050   34.828470    5.828952   x
            x    C       534       17.570809   34.818469    5.857955   x
            x    C       535        6.799034   34.828976    5.827260   x
            x    C       536       31.013506   34.819026    5.856807   x
            x    C       537       63.297521   34.818957    5.854896   x
            x    C       538       25.642122   34.828851    5.825325   x
            x    C       539        1.427228   34.819338    5.858917   x
            x    C       540       39.084945   34.828972    5.820800   x
            x    C       541       33.713576   34.819120    5.854860   x
            x    C       542       57.926039   34.828972    5.821819   x
            x    C       543       55.226882   34.828972    5.816800   x
            x    C       544       41.784070   34.828397    5.819358   x
            x    C       545       18.914694   37.154053    5.850826   x
            x    C       546       13.526958   37.153908    5.852755   x
            x    C       547       10.836160   37.153577    5.855145   x
            x    C       548       21.605233   37.153658    5.854702   x
            x    C       549        2.770470   37.154039    5.855718   x
            x    C       550       26.980393   37.153870    5.854186   x
            x    C       551        5.460675   37.153848    5.857367   x
            x    C       552       29.670746   37.154146    5.854916   x
            x    C       553       61.954027   37.154317    5.850753   x
            x    C       554       35.057498   37.154154    5.849694   x
            x    C       555       59.263614   37.153964    5.851752   x
            x    C       556       37.747404   37.153644    5.852382   x
            x    C       557       43.121466   37.153728    5.846583   x
            x    C       558       51.198864   37.153678    5.844307   x
            x    C       559       53.889233   37.154037    5.846803   x
            x    C       560       45.812073   37.153620    5.842123   x
            xxxxxxxxxxxxxxxxxxxxxxxxxxxxxxxxxxxxxxxxxxxxxxxxxxxxxxxxxxxx
 

LBFGS: continuation file name is "graphite.continuation"
 LBFGS: Restarting previous  geometry optimization.
 avg_mass=  21102.038348011974
 Enthalpy contributions:
                  total energy=  -3.02572758E+003 Eh
        diagonal pressure term=   0.00000000E+000 Eh
    off-diagonal pressure term=   0.00000000E+000 Eh
 LBFGS: finished iteration   0  with enthalpy= -3.025727584659E+003 Eh
  
 +-----------+-----------------+-----------------+------------+-----+ <-- LBFGS
 | Parameter |      value      |    tolerance    |    units   | OK? | <-- LBFGS
 +-----------+-----------------+-----------------+------------+-----+ <-- LBFGS
 |  dE/ion   |   0.000000E+000 |   1.000000E-006 |         Eh | No  | <-- LBFGS
 |  |F|max   |   3.609266E-003 |   2.000000E-003 |    Eh/Bohr | No  | <-- LBFGS
 |  |dR|max  |   0.000000E+000 |   5.000000E-003 |       Bohr | No  | <-- LBFGS
 +-----------+-----------------+-----------------+------------+-----+ <-- LBFGS
  

================================================================================
 Starting LBFGS iteration    1 ...
================================================================================
 Writing xyz coordinates to file "graphite.xyz" ... done

 Writing continuation file "graphite.continuation" ...done
 Backing up NGWFs to file "graphite.tightbox_ngwfs.bfgs_back" ... done
 Backing up Hamiltonian to file "graphite.ham.bfgs_back" ... done
  
 +------------+-------------+-------------+-----------------+ <-- min LBFGS
 |    Step    |   lambda    |   F.delta   |    enthalpy     | <-- min LBFGS
 +------------+-------------+-------------+-----------------+ <-- min LBFGS
 |  previous  |    0.000000 |    0.003400 |    -3025.727585 | <-- min LBFGS
 +------------+-------------+-------------+-----------------+ <-- min LBFGS
  

--------------------------------------------------------------------------------
 LBFGS: starting iteration   1 with trial guess (lambda=    1.000000)
--------------------------------------------------------------------------------
 
                           -------------------------------
                                     Cell Contents
                           -------------------------------
 
            xxxxxxxxxxxxxxxxxxxxxxxxxxxxxxxxxxxxxxxxxxxxxxxxxxxxxxxxxxxx
            x  Element    Atom      Absolute co-ordinates of atoms     x
            x            Number        x           y           z       x
            x----------------------------------------------------------x
            x    Li        1        0.045919   37.149395   16.512037   x
            x    Li        2        0.046114   27.827513   16.512607   x
            x    Li        3        0.045850   18.503171   16.512033   x
            x    Li        4        0.045337    9.186448   16.510895   x
            x    Li        5       32.407090   37.148470   16.512938   x
            x    Li        6       32.406630   27.827549   16.511699   x
            x    Li        7       32.407690   18.504285   16.512897   x
            x    Li        8       32.408225    9.186571   16.513537   x
            x    Li        9       16.234122    9.188942   16.497922   x
            x    Li       10       16.234196   18.498179   16.503017   x
            x    Li       11       16.234345   27.826451   16.511773   x
            x    Li       12       16.234067   37.153276   16.509727   x
            x    Li       13       48.478880   37.143276   16.504885   x
            x    Li       14       48.478724   27.829444   16.499681   x
            x    Li       15       48.478877   18.508163   16.511684   x
            x    Li       16       48.478936    9.185418   16.513615   x
            x    C        17       18.931945    9.195930   12.907935   x
            x    C        18       13.511466    9.195845   12.912735   x
            x    C        19       14.862837   11.538285   12.914744   x
            x    C        20       17.580606   11.538293   12.913616   x
            x    C        21       51.214036   27.835791   12.913840   x
            x    C        22       45.795502   27.835902   12.912233   x
            x    C        23       47.145567   30.178300   12.914997   x
            x    C        24       49.863884   30.178106   12.917402   x
            x    C        25       14.862405    6.852337   12.916447   x
            x    C        26       17.580821    6.852353   12.915314   x
            x    C        27       21.602142   13.855849   12.934549   x
            x    C        28       18.923630   13.854643   12.904872   x
            x    C        29       13.519178   13.854694   12.910043   x
            x    C        30       14.862659   16.171264   12.918752   x
            x    C        31       17.580586   16.171273   12.917442   x
            x    C        32       47.145389   25.492260   12.916499   x
            x    C        33       49.864059   25.492595   12.918751   x
            x    C        34       53.883462   32.495986   12.943540   x
            x    C        35       51.206299   32.494872   12.911646   x
            x    C        36       45.803272   32.494625   12.910772   x
            x    C        37       47.145352   34.811249   12.919195   x
            x    C        38       49.864091   34.811747   12.921473   x
            x    C        39       14.862701    2.219461   12.921873   x
            x    C        40       17.580539    2.219456   12.920643   x
            x    C        41       22.944825    2.202777   12.941563   x
            x    C        42        9.498415    2.202719   12.946614   x
            x    C        43       63.287034    2.219130   12.925600   x
            x    C        44        6.798725    2.202302   12.948138   x
            x    C        45       31.006297    2.218700   12.931061   x
            x    C        46        1.434785    2.218656   12.929814   x
            x    C        47       25.644555    2.202374   12.949652   x
            x    C        48       33.724980    2.218831   12.927774   x
            x    C        49       39.086331    2.202208   12.945871   x
            x    C        50       55.224919    2.202215   12.945791   x
            x    C        51       57.924192    2.202692   12.943700   x
            x    C        52       47.145447    2.218669   12.921661   x
            x    C        53       41.785155    2.202186   12.947634   x
            x    C        54       49.864051    2.218303   12.923670   x
            x    C        55       18.923662    4.535637   12.906710   x
            x    C        56       13.519273    4.535561   12.911942   x
            x    C        57       10.840945    4.536644   12.941116   x
            x    C        58       26.985731    4.536527   12.951196   x
            x    C        59        5.456849    4.536499   12.950539   x
            x    C        60       21.601925    4.536660   12.937830   x
            x    C        61       59.265993    4.537014   12.942022   x
            x    C        62        2.778055    4.535274   12.921909   x
            x    C        63       35.067344    4.535449   12.919127   x
            x    C        64       61.943876    4.535669   12.917362   x
            x    C        65       29.663504    4.535518   12.926303   x
            x    C        66       43.126137    4.536401   12.948428   x
            x    C        67       51.205976    4.535480   12.919304   x
            x    C        68       37.744991    4.536888   12.948579   x
            x    C        69       53.883843    4.536483   12.950957   x
            x    C        70       45.803336    4.535522   12.919258   x
            x    C        71       22.944892    6.870230   12.932058   x
            x    C        72       63.286413    6.852447   12.926371   x
            x    C        73        6.799588    6.870185   12.940628   x
            x    C        74       31.006473    6.852858   12.932643   x
            x    C        75       39.086632    6.870255   12.942669   x
            x    C        76       57.923804    6.870351   12.939755   x
            x    C        77        1.434779    6.852653   12.930446   x
            x    C        78        9.498427    6.870047   12.937027   x
            x    C        79       25.643869    6.870336   12.942353   x
            x    C        80       33.725447    6.852539   12.929539   x
            x    C        81       55.225588    6.870307   12.943384   x
            x    C        82       47.145312    6.852559   12.928354   x
            x    C        83       41.784563    6.869917   12.945841   x
            x    C        84       49.863849    6.852900   12.930223   x
            x    C        85       51.214188    9.195824   12.926574   x
            x    C        86       59.254363    9.195896   12.907566   x
            x    C        87        2.785963    9.195964   12.924766   x
            x    C        88       26.975334    9.196006   12.913851   x
            x    C        89       35.076178    9.195932   12.921329   x
            x    C        90       43.114118    9.195553   12.915145   x
            x    C        91       53.895329    9.195738   12.916879   x
            x    C        92       61.935790    9.196032   12.920347   x
            x    C        93        5.467580    9.195929   12.913632   x
            x    C        94       21.614016    9.195814   12.899918   x
            x    C        95       29.656187    9.195916   12.929397   x
            x    C        96       37.756877    9.195770   12.912972   x
            x    C        97       45.795161    9.195637   12.926031   x
            x    C        98       10.829576    9.195614   12.902899   x
            x    C        99       47.145397   11.538475   12.929312   x
            x    C       100       55.225241   11.521758   12.947424   x
            x    C       101       63.286876   11.538763   12.924108   x
            x    C       102       31.006515   11.538381   12.929978   x
            x    C       103       39.085974   11.521878   12.945498   x
            x    C       104       49.863703   11.538113   12.931149   x
            x    C       105       57.924313   11.522095   12.942818   x
            x    C       106        1.434632   11.538380   12.927967   x
            x    C       107       33.725228   11.538630   12.927085   x
            x    C       108       41.784862   11.521798   12.949785   x
            x    C       109        6.799353   11.522013   12.942115   x
            x    C       110       22.944578   11.521992   12.934093   x
            x    C       111       25.643984   11.522054   12.943866   x
            x    C       112        9.498867   11.521827   12.938991   x
            x    C       113       45.803407   13.855064   12.924217   x
            x    C       114       43.126205   13.856195   12.950646   x
            x    C       115       51.205938   13.855222   12.924097   x
            x    C       116       59.266336   13.856044   12.940723   x
            x    C       117       35.067055   13.855423   12.917590   x
            x    C       118       53.883828   13.856201   12.953124   x
            x    C       119       61.944301   13.855310   12.916178   x
            x    C       120       29.663677   13.855533   12.923855   x
            x    C       121       37.744631   13.856096   12.947029   x
            x    C       122        2.778039   13.855517   12.919602   x
            x    C       123       26.985615   13.856437   12.947276   x
            x    C       124        5.456827   13.856402   12.946782   x
            x    C       125       10.840797   13.855910   12.937831   x
            x    C       126       47.145363   16.172165   12.930385   x
            x    C       127       55.225603   16.190146   12.944435   x
            x    C       128       41.784599   16.189884   12.946506   x
            x    C       129       49.863949   16.172552   12.932245   x
            x    C       130       39.086429   16.189825   12.942407   x
            x    C       131       63.287167   16.172118   12.926484   x
            x    C       132       31.006428   16.172777   12.931360   x
            x    C       133       57.923936   16.189792   12.940255   x
            x    C       134       33.724772   16.172364   12.928577   x
            x    C       135        6.799352   16.189880   12.939550   x
            x    C       136        1.434819   16.172643   12.930113   x
            x    C       137       25.644014   16.190161   12.940966   x
            x    C       138       22.945063   16.189526   12.932301   x
            x    C       139        9.498313   16.189469   12.937302   x
            x    C       140       51.214030   18.516047   12.925244   x
            x    C       141       45.795157   18.516116   12.924289   x
            x    C       142       43.114289   18.515874   12.914534   x
            x    C       143       53.895096   18.515730   12.916882   x
            x    C       144       35.075466   18.515713   12.921395   x
            x    C       145       59.254748   18.515984   12.909388   x
            x    C       146       37.756692   18.516075   12.913470   x
            x    C       147       61.936510   18.515708   12.921923   x
            x    C       148       29.656193   18.515791   12.929108   x
            x    C       149        2.786074   18.515906   12.925953   x
            x    C       150       26.974952   18.515828   12.915073   x
            x    C       151        5.467873   18.515671   12.915708   x
            x    C       152       10.829301   18.515845   12.908283   x
            x    C       153       18.932067   18.515122   12.912723   x
            x    C       154       21.614269   18.516084   12.904969   x
            x    C       155       13.511632   18.514966   12.917882   x
            x    C       156       47.145402   20.859123   12.922251   x
            x    C       157       49.863721   20.858871   12.924434   x
            x    C       158       55.224600   20.842446   12.946176   x
            x    C       159       41.785585   20.842547   12.947139   x
            x    C       160       31.006355   20.858649   12.930496   x
            x    C       161       39.086317   20.842293   12.945214   x
            x    C       162       63.287212   20.858925   12.926353   x
            x    C       163       33.724831   20.858708   12.927162   x
            x    C       164       57.924228   20.842524   12.944230   x
            x    C       165        1.434842   20.858532   12.930520   x
            x    C       166        6.798718   20.842188   12.948627   x
            x    C       167       22.945059   20.842324   12.941210   x
            x    C       168       25.644407   20.842211   12.949158   x
            x    C       169       14.862804   20.858440   12.921463   x
            x    C       170        9.498216   20.841996   12.947018   x
            x    C       171       17.580563   20.858540   12.919978   x
            x    C       172       51.206073   23.175403   12.913139   x
            x    C       173       45.803363   23.175426   12.912372   x
            x    C       174       43.126825   23.176503   12.942736   x
            x    C       175       59.266335   23.176449   12.941564   x
            x    C       176       37.744544   23.176239   12.945879   x
[...]
 C   365 -- C   389       -0.07      0.00      5.39666
 C   326 -- C   340       -0.07     -0.00      5.39668
 C   485 -- C   507       -0.07      0.00      5.39668
 C   333 -- C   541       -0.07     -0.00      5.39669
 C   414 -- C   445       -0.07     -0.00      5.39669
 C   308 -- C   313       -0.07      0.00      5.39672
 C   325 -- C   342       -0.07     -0.00      5.39673
 C   334 -- C   537       -0.07     -0.00      5.39677
 C   424 -- C   450       -0.07     -0.00      5.39681
 C   327 -- C   534       -0.07     -0.00      5.39686
 C   489 -- C   504       -0.07      0.00      5.39686
 C   487 -- C   509       -0.07      0.00      5.39687
 C   328 -- C   531       -0.07     -0.00      5.39693
 C   336 -- C   536       -0.07     -0.00      5.39698
 C   319 -- C   457       -0.07     -0.00      5.39700
 C   318 -- C   459       -0.07     -0.00      5.39706
 C   422 -- C   448       -0.07     -0.00      5.39711
 C   419 -- C   453       -0.07     -0.00      5.39719
 C   331 -- C   539       -0.07     -0.00      5.39723
 C   172 -- C   173       -0.07      0.00      5.40273
 C    35 -- C    36       -0.07      0.00      5.40288
 C    67 -- C    70       -0.07      0.00      5.40305
 C   113 -- C   115       -0.07      0.00      5.40307
 C   236 -- C   239       -0.07      0.00      5.40394
 C   117 -- C   120       -0.07      0.00      5.40399
 C   179 -- C   181       -0.07      0.00      5.40410
 C    63 -- C    65       -0.07      0.00      5.40421
 C   234 -- C   237       -0.07      0.00      5.40522
 C   119 -- C   122       -0.07      0.00      5.40528
 C   180 -- C   182       -0.07      0.00      5.40533
 C    62 -- C    64       -0.07      0.00      5.40553
 C    55 -- C    56       -0.07      0.00      5.40567
 C   184 -- C   187       -0.07      0.00      5.40572
 C    28 -- C    29       -0.07      0.00      5.40576
 C   230 -- C   232       -0.07      0.00      5.40589
 C    23 -- C    33       -0.06     -0.00      5.41485
 C    24 -- C    32       -0.06     -0.00      5.41496
 C    84 -- C    99       -0.06     -0.00      5.41510
 C    82 -- C   104       -0.06     -0.00      5.41513
 C    74 -- C   107       -0.06     -0.00      5.41514
 C   129 -- C   156       -0.06     -0.00      5.41521
 C   126 -- C   157       -0.06     -0.00      5.41521
 C   194 -- C   218       -0.06     -0.00      5.41526
 C    80 -- C   102       -0.06     -0.00      5.41527
 C    38 -- C    52       -0.06     -0.00      5.41528
 C   189 -- C   223       -0.06     -0.00      5.41529
 C   132 -- C   163       -0.06     -0.00      5.41538
 C    37 -- C    54       -0.06     -0.00      5.41538
 C    19 -- C    26       -0.06     -0.00      5.41541
 C    20 -- C    25       -0.06     -0.00      5.41547
 C    48 -- C   248       -0.06     -0.00      5.41547
 C    77 -- C   101       -0.06     -0.00      5.41548
 C    45 -- C   253       -0.06     -0.00      5.41550
 C    72 -- C   106       -0.06     -0.00      5.41551
 C   191 -- C   224       -0.06     -0.00      5.41551
 C   197 -- C   219       -0.06     -0.00      5.41563
 C   134 -- C   160       -0.06     -0.00      5.41564
 C    46 -- C   249       -0.06     -0.00      5.41567
 C   136 -- C   162       -0.06     -0.00      5.41570
 C   201 -- C   216       -0.06     -0.00      5.41585
 C    40 -- C   243       -0.06     -0.00      5.41585
 C   199 -- C   221       -0.06     -0.00      5.41586
 C    39 -- C   246       -0.06     -0.00      5.41586
 C    43 -- C   251       -0.06     -0.00      5.41586
 C   131 -- C   165       -0.06     -0.00      5.41587
 C    31 -- C   169       -0.06     -0.00      5.41593
 C    30 -- C   171       -0.06     -0.00      5.41601
 C    21 -- C    22       -0.06     -0.00      5.41985
 C   140 -- C   141       -0.06      0.00      5.41995
 C   270 -- C   272       -0.06      0.00      5.42002
 C    85 -- C    97       -0.06     -0.00      5.42043
 C   144 -- C   148       -0.06      0.00      5.42086
 C   264 -- C   266       -0.06      0.00      5.42090
 C    89 -- C    95       -0.06     -0.00      5.42093
 C   204 -- C   209       -0.06     -0.00      5.42097
 C   147 -- C   149       -0.06      0.00      5.42198
 C   206 -- C   212       -0.06     -0.00      5.42200
 C   261 -- C   265       -0.06      0.00      5.42201
 C    87 -- C    92       -0.06     -0.00      5.42218
 C   153 -- C   155       -0.06      0.00      5.42244
 C    17 -- C    18       -0.06     -0.00      5.42250
 C   257 -- C   258       -0.06      0.00      5.42256
 C   202 -- C   214       -0.06     -0.00      5.42274
=============================================================


============== Orbital energy and occupancy information for spin 1 =============

      Total number of orbitals:    2288
        Occupancy sum (kernel):    1087.904116383
   Occupancy sum (eigenvalues):    1087.904116383
                 HOMO-LUMO gap:       0.000221691 Eh
                 Mid-gap level:      -0.164499941 Eh

                        Orbital | Energy (Eh) | Occupancy
                            1    -1.961890468   1.0000000
                        .......   ...........   .........
                         1079    -0.187388393   0.9967049
                         1080    -0.186311464   0.9956173
                         1081    -0.177970929   0.9591176
                         1082    -0.177969538   0.9591017
                         1083    -0.165291869   0.4268999
                         1084    -0.165290466   0.4268094
                         1085    -0.165282545   0.4262809
                         1086    -0.165281593   0.4262186
                         1087    -0.164616001   0.3811233
                         1088    -0.164610787   0.3808008
                        ....... -- gap at 0K -- .........
                         1089    -0.164389095   0.3687501
                         1090    -0.164362065   0.3670506
                         1091    -0.164352587   0.3641678
                         1092    -0.164350693   0.3640452
                         1093    -0.162734914   0.2703778
                         1094    -0.162725939   0.2698657
                         1095    -0.162544390   0.2601186
                         1096    -0.162531045   0.2594006
                         1097    -0.162062340   0.2337974
                         1098    -0.160963576   0.1863599
                        .......   ...........   .........
                         2288     0.714838550   0.0000000

================================================================================

============== Orbital energy and occupancy information for spin 2 =============

      Total number of orbitals:    2288
        Occupancy sum (kernel):    1087.904116372
   Occupancy sum (eigenvalues):    1087.904116372
                 HOMO-LUMO gap:       0.000221691 Eh
                 Mid-gap level:      -0.164499941 Eh

                        Orbital | Energy (Eh) | Occupancy
                            1    -1.961890468   1.0000000
                        .......   ...........   .........
                         1079    -0.187388393   0.9967049
                         1080    -0.186311465   0.9956173
                         1081    -0.177970929   0.9591176
                         1082    -0.177969539   0.9591017
                         1083    -0.165291869   0.4268999
                         1084    -0.165290466   0.4268094
                         1085    -0.165282544   0.4262809
                         1086    -0.165281593   0.4262186
                         1087    -0.164616001   0.3811233
                         1088    -0.164610787   0.3808008
                        ....... -- gap at 0K -- .........
                         1089    -0.164389096   0.3687501
                         1090    -0.164362065   0.3670506
                         1091    -0.164352587   0.3641678
                         1092    -0.164350693   0.3640452
                         1093    -0.162734914   0.2703778
                         1094    -0.162725939   0.2698657
                         1095    -0.162544390   0.2601186
                         1096    -0.162531045   0.2594006
                         1097    -0.162062340   0.2337974
                         1098    -0.160963576   0.1863598
                        .......   ...........   .........
                         2288     0.714838550   0.0000000

================================================================================

===================== Writing canonical molecular orbitals =====================
    Spin 1
| Orbital  Energy (eV)  Norm     |
| HOMO-5   -4.49782062  1.000000 | 
| HOMO-4   -4.49778245  1.000000 | 
| HOMO-3   -4.49756689  1.000000 | 
| HOMO-2   -4.49754100  1.000000 | 
| HOMO-1   -4.47942931  1.000000 | 
| HOMO     -4.47928743  1.000000 | 
| LUMO     -4.47325490  1.000000 | 
| LUMO+1   -4.47251936  1.000000 | 
| LUMO+2   -4.47226145  1.000000 | 
| LUMO+3   -4.47220992  1.000000 | 
| LUMO+4   -4.42824235  1.000000 | 
| LUMO+5   -4.42799811  1.000000 | 
================================================================================

===================== Writing canonical molecular orbitals =====================
    Spin 2
| Orbital  Energy (eV)  Norm     |
| HOMO-5   -4.49782063  1.000000 | 
| HOMO-4   -4.49778244  1.000000 | 
| HOMO-3   -4.49756689  1.000000 | 
| HOMO-2   -4.49754100  1.000000 | 
| HOMO-1   -4.47942931  1.000000 | 
| HOMO     -4.47928743  1.000000 | 
| LUMO     -4.47325491  1.000000 | 
| LUMO+1   -4.47251935  1.000000 | 
| LUMO+2   -4.47226145  1.000000 | 
| LUMO+3   -4.47220993  1.000000 | 
| LUMO+4   -4.42824234  1.000000 | 
| LUMO+5   -4.42799812  1.000000 | 
================================================================================
 
=============== Density of States (DOS) calculation for UP spin ================
Writing "graphite_UP_DOS.txt" ... done
================================================================================
 
============== Density of States (DOS) calculation for DOWN spin ===============
Writing "graphite_DN_DOS.txt" ... done
================================================================================
 
Writing bands to file "graphite.val_bands" ... done

IS: Calculating electrolyte contribution to the atomic forces ...
================================================================================
 
***********************************************************
********** Summary of Forces (values in Eh/a) *************
*                                                         *
* ---------------------- Minimum ------------------------ *
* Atom:       472, |F|min =    0.00003105                 *
* Components:     Fx|min       Fy|min       Fz|min        *
*               0.00003020  -0.00000282  -0.00000664      *
*                                                         *
* ---------------------- Maximum ------------------------ *
* Atom:       172, |F|max =    0.00060462                 *
* Components:     Fx|max       Fy|max       Fz|max        *
*               0.00036808   0.00002350   0.00047909      *
*                                                         *
* ---------------- Root Mean Square Force --------------- *
*                  |F|rms =    0.00031869                 *
* Components:     Fx|rms       Fy|rms       Fz|rms        *
*               0.00018290   0.00010798   0.00023759      *
***********************************************************
 

                                                      hartree           kcal/mol
IS: NB: Energy of pure electrolyte:         -0.08648408850066         -54.269584

------------------------------ TIMING INFORMATION ------------------------------
AVERAGE TIME:    6454.133s on    128 proc(s)                                    
TOTAL TIME:      6454.139s on    128 proc(s)                                    
================= AVERAGE TIMINGS FROM ALL PROCS (CUMULATIVE) ==================
|| TAG                                    #calls    cpu time   %total  Gflops ||
|| linalg_invert_sym_matrix             :     4        0.00s   0.000%  ------ || (1 procs only)
|| density_fftbox_interp_mult_imbal     :  8280        0.00s   0.000%  ------ ||
|| sparse_set_to_garbage                :    68        0.01s   0.000%  ------ ||
|| onetep.F90 final imbalance           :     1        0.01s   0.000%  ------ ||
|| onetep.F90 main loop imbalance       :     1        0.02s   0.000%  ------ ||
|| ewald_calculate_forces_realspace     :     5        0.02s   0.000%  ------ ||
|| vdwcorrection_calculate_forces       :     5        0.02s   0.000%  ------ ||
|| vdwcorrection_calculate_energy       :     5        0.05s   0.001%  ------ ||
|| basis_extract_function_from_box      :   661        0.05s   0.001%  ------ ||
|| pseudopotentials_core_density        :     5        0.10s   0.001%  ------ ||
|| pseudopotentials_local_on_grid       :     5        0.10s   0.002%  ------ ||
|| sparse_spam3toblacs_real_fast_imbal  :   764        0.13s   0.002%  ------ ||
|| parallel_prepare_fd_halos_alloc      : 25821        0.14s   0.002%  ------ ||
|| pseudopotentials_nonlocal_mat        :    11        0.21s   0.003%  ------ ||
|| restart_hamiltonian_read             :     5        0.22s   0.003%  ------ ||
|| parallel_prepare_fd_halos_request    : 25821        0.24s   0.004%  ------ ||
|| sparse_blacstospam3_real_fast_imbal  :   752        0.26s   0.004%  ------ ||
|| restart_hamiltonian_write            :     8        0.40s   0.006%  ------ ||
|| sparse_spam3toblacs_real_fast_B2     : 97792        0.63s   0.010%  ------ ||
|| pseudo_make_structure_factor         :     5        0.65s   0.010%  ------ ||
|| parallel_prepare_fd_halos_satisfy    : 25821        1.17s   0.018%  ------ ||
|| smeared_ion_generate_potential_PBC   :     5        1.37s   0.021%  ------ ||
|| ngwf_gradient_coeffs                 :     8        1.54s   0.024%  ------ ||
|| sparse_init                          :     5        1.81s   0.028%  ------ ||
|| restart_kernel_write                 :    13        2.00s   0.031%  ------ ||
|| pseudo_local_calculate_forces        :     5        2.56s   0.040%  ------ ||
|| energy_and_force_init_cell           :     1        2.67s   0.041%  ------ ||
|| integrals_grad_spam3                 :     5        3.13s   0.048%  ------ ||
|| nonsc_forces_ngwfs_calc              :     5        3.14s   0.049%  ------ ||
|| sparse_embed_hotelling_invert_embed  :    11        3.23s   0.050%  ------ ||
|| density_init_guess_real              :     5        3.33s   0.052%  ------ ||
|| projectors_func_ovlp_box_spam3       :    11        3.33s   0.052%  ------ ||
|| ewald_calculate_energy               :     5        3.34s   0.052%  ------ ||
|| pseudo_nlcc_calculate_forces         :     5        3.84s   0.060%  ------ ||
|| eigenstates_calculate                :     1        4.37s   0.068%  ------ ||
|| fourier_filter_cell                  :   166        4.52s   0.070% 204.611 ||
|| projectors_func_grad_ovlp_box_spam3  :    15        4.78s   0.074%  ------ ||
|| pseudo_nl_calculate_forces           :     5        5.42s   0.084%  ------ ||
|| projectors_init_fftbox_recip         :    58        5.62s   0.087%  ------ ||
|| sparse_trace                         :  2872        5.75s   0.089%  ------ ||
|| fourier_apply_box_pair               :   718        6.60s   0.102%  1.756k ||
|| function_ops_brappd_ketppd_spam3     :    17        6.79s   0.105%  ------ ||
|| restart_ngwfs_tightbox_input         :     5        7.00s   0.108%  ------ ||
|| boltzmann_init_steric_pot            :     5        9.12s   0.141%  ------ ||
|| basis_copy_function_to_box           : 10885        9.40s   0.146%  ------ ||
|| ewald_calculate_forces_recipspace    :     5       10.13s   0.157%  ------ ||
|| ewald_calculate_forces               :     5       10.18s   0.158%  ------ ||
|| parallel_prepare_fd_halos_clear      : 25821       10.40s   0.161%  ------ ||
|| parallel_prepare_fd_halos_comms_imbal: 25821       10.40s   0.161%  ------ ||
|| integrals_kinetic_spam3              :    11       11.42s   0.177%  ------ ||
|| parallel_prepare_fd_halos_comms_wait : 25821       17.48s   0.271%  ------ ||
|| fourier_interpolate_cell             :   414       19.46s   0.301% 118.553 ||
|| sparse_product                       :  1676       22.98s   0.356%  ------ ||
|| projectors_gradient_batch            :    32       24.14s   0.374%  ------ ||
|| fourier_apply_cell_backward          :  1741       28.19s   0.437% 173.662 ||
|| properties_calculate                 :     1       29.30s   0.454%  ------ ||
|| sparse_spam3toblacs_real_fast_B1     : 97792       30.39s   0.471%  ------ ||
|| sparse_spam3toblacs_real_fast        :   764       32.49s   0.503%  ------ ||
|| basis_dot_function_with_box          : 1.918M      35.39s   0.548%  ------ ||
|| parallel_prepare_fd_halos            : 25821       39.98s   0.620%  ------ ||
|| restart_ngwfs_tightbox_output        :     5       40.71s   0.631%  ------ ||
|| cell_grid_extract_box_real           :  3320       41.30s   0.640%  ------ ||
|| sparse_blacstospam3_real_fast        :   752       55.39s   0.858%  ------ ||
|| xc_energy_potential                  :   212       63.32s   0.981%  ------ ||
|| cell_grid_deposit_box_real           :  8810       92.04s   1.426%  ------ ||
|| fourier_apply_cell_forward           :  1721       94.73s   1.468%  51.088 ||
|| ngwf_gradient_build_batch            :    32      103.46s   1.603%  ------ ||
|| basis_add_function_to_box            : 5.829M     110.97s   1.719%  ------ ||
|| dense_eigensolve                     :   372      118.64s   1.838%  ------ ||
|| finite_difference_derivative         : 25821      125.43s   1.943%  ------ ||
|| edft_diag_ngwf_ham                   :   370      149.30s   2.313%  ------ ||
|| integrals_locpot_mat_els_batch       :   300      149.85s   2.322%  ------ ||
|| ngwf_gradient_batch                  :    32      165.94s   2.571%  ------ ||
|| ngwf_gradient_lnv                    :     8      172.36s   2.671%  ------ ||
|| hamiltonian_energy_components        :     5      173.34s   2.686%  ------ ||
|| edft_apply_smearing_operator         :   185      228.57s   3.541%  ------ ||
|| implicit_solvent_boltzmann_forces    :     5      250.52s   3.882%  ------ ||
|| density_batch_row_sums               :   828      307.34s   4.762%  ------ ||
|| density_fftbox_deposit_to_cell       :  8280      350.71s   5.434%  ------ ||
|| smeared_ion_force_correction         :    10      492.70s   7.634%  ------ ||
|| implicit_solvent_soft_sphere_forces  :     5      519.62s   8.051%  ------ ||
|| potential_apply_to_ngwf_batch        :   300      566.73s   8.781%  ------ ||
|| integrals_locpot_dbl_grid            :   150      717.47s  11.116%  ------ ||
|| fourier_apply_box                    : 22787      769.08s  11.916%  2.318k ||
|| dl_mg_solver_calls                   :   207      874.45s  13.549%  ------ ||
|| multigrid_calculate_hartree          :   207      895.92s  13.881%  ------ ||
|| density_fftbox_interpolate_multiply  :  8280      916.98s  14.208%  ------ ||
|| forces_calculate                     :     5     1337.69s  20.726%  ------ ||
|| density_batch_interp_deposit         :   828     1674.02s  25.937%  ------ ||
|| density_on_dbl_grid                  :   414     2095.22s  32.463%  ------ ||
|| hamiltonian_lhxc_calculate           :   197     2999.48s  46.474%  ------ ||
|| edft_calculate                       :     8     3749.42s  58.093%  ------ ||
|| ngwf_cg_optimise                     :     5     4204.90s  65.150%  ------ ||
|| energy_and_forces                    :     5     6422.39s  99.508%  ------ ||
|| total_time                           :     1     6454.13s 100.000%  ------ ||
================================================================================
Overhead of generating timer report: 
- 0 ms averaging over threads,
- 25 ms ensuring consistency across MPI ranks,
- 24 ms printing in order.

Job completed: 01-11-2023 01:22 (+0000)

