 +---------------------------------------------------------------+
 |                                                               |
 |        ####### #     # ####### ####### ####### ######         |
 |        #     # ##    # #          #    #       #     #        |
 |        #     # # #   # #          #    #       #     #        |
 |        #     # #  #  # #####      #    #####   ######         |
 |        #     # #   # # #          #    #       #              |
 |        #     # #    ## #          #    #       #              |
 |        ####### #     # #######    #    ####### #              |
 |                                                               |
 |        Linear-Scaling Ab Initio Total Energy Program          |
 |                                                               |
 |          Release for academic collaborators of ODG            |
 |                                             Version 6.1.59    |
 | Remote: https://github.com/onetep-devel/onetep.git            |
 | Local branch: master                                          |
 | Commit ID: 3df6b8ca88fa1735659d3248d54c94b50edec21b           |
 | Date: Thu Oct 5 13:49:52 2023 +0200                           |
 | Working tree clean                                            |
 |                                                               |
 +---------------------------------------------------------------+
 |                                                               |
 |  Authors:                                                     |
 |  Jacek Dziedzic, Peter D. Haynes, Nicholas D. M. Hine,        |
 |  Arash A. Mostofi, Mike C. Payne and Chris-Kriton Skylaris    |
 |                                                               |
 |  Contributors:                                                |
 |  J. Aarons, L. Andrinopoulos, P. W. Avraam, R. A. Bell,       |
 |  A. Bhandari, G. A. Bramley, R. J. Charlton, S. J. Clark,     |
 |  R. J. Clements, G. C. Constantinescu, F. Corsetti,           |
 |  N. Corsini, O. Dieguez, S. M. M. Dubois, K. K. B. Duff,      |
 |  J. M. Escartin, M. Escobar Azor, A. Greco,                   |
 |  H. Helal, Q. O. Hill, L. P. Lee, J.-H. Li,                   |
 |  E. B. Linscott, G. Moynihan, D. D. O`Regan,                  |
 |  O. K. Okan, M. J. S. Phipps, C. J. Pickard,                  |
 |  J. C. A. Prentice, M. I. J. Probert, L. E. Ratcliff,         |
 |  M. Robinson, A. Ruiz Serrano, M. dos Santos Dias,            |
 |  J. S. Spencer, E. W. Tait, G. Teobaldi, D. Turban,           |
 |  V. Vitale, K. A. Wilkinson, C. Weber, J. C. Womack,          |
 |  N. Yeung and T. J. Zuehlsdorff                               |
 |                                                               |
 |                                   Copyright (c) 2004-2023     |
 |                                                               |
 |  Please cite:                                                 |
 |  "The ONETEP linear-scaling density functional theory program"|
 |   J. Chem. Phys. 152(17) 174111 (2020)                        |
 |                                                               |
 |          in all publications arising from your use of ONETEP. |
 |                                                               |
 +---------------------------------------------------------------+
 |                                                               |
 |   ONETEP is based on developments described in the following  |
 |   publications:                                               |
 |                                                               |
 |  "Nonorthogonal generalized Wannier function pseudopotential  |
 |   plane-wave method".                                         |
 |   C.-K. Skylaris, A. A. Mostofi, P. D. Haynes, O. Dieguez,    |
 |   M. C. Payne.                                                |
 |   Phys. Rev. B 66 035119 (2002).                              |
 |                                                               |
 |  "Preconditioned iterative minimization for linear-scaling    |
 |   electronic structure calculations".                         |
 |   A. A. Mostofi, P. D. Haynes, C.-K. Skylaris, M. C. Payne.   |
 |   J. Chem. Phys. 119(17), pp.8842-8848 (2003).                |
 |                                                               |
 |  "Total-energy calculations on a real space grid with         |
 |   localized functions and a plane-wave basis".                |
 |   A. A. Mostofi, C.-K. Skylaris, P. D. Haynes, M. C. Payne.   |
 |   Comput. Phys. Commun. 147, pp.788-802 (2002).               |
 |                                                               |
 |  "Accurate kinetic energy evaluation in electronic structure  |
 |   calculations with localized functions on real space grids"  |
 |   C.-K. Skylaris, A. A. Mostofi, P. D. Haynes, C. J. Pickard, |
 |   M. C. Payne.                                                |
 |   Comput. Phys. Commun. 140, pp.315-322 (2001).               |
 |                                                               |
 |  "Accurate ionic forces and geometry optimization in linear-  |
 |   scaling density-functional theory with local orbitals"      |
 |   N. D. M. Hine, M. Robinson, P. D. Haynes, C.-K. Skylaris,   |
 |   M. C. Payne, and A. A. Mostofi.                             |
 |   Phys. Rev. B 83 195102 (2011).                              |
 |                                                               |
 +---------------------------------------------------------------+

Job started: 31-10-2023 22:48 (+0000)
 
Reading parameters from file "graphite.dat" ...... done

If your calculation crashes here, before "Checking processes and threads..."
is displayed, then your stack size is insufficient.
If so, use "ulimit -s unlimited" at runtime.
You can disable this check with "check_stack_size F".

Checking processes and threads...
   Determining the default number of threads...
      No default threads set at compilation time: defaulting to 1.
      OpenMP library call suggests 8 threads.
      Hybrid MPI-OpenMP compilation detected.
      Number of MPI processes > 1.
      OMP_NUM_THREADS environment variable present and
      its value matches the one obtained from the OpenMP library call.
      Using this value as default.
      Default threads: 8
      Default applies to threads_max and threads_num_fftboxes.
      Settings in the input file override this default.
   ... done

   Running with 128 MPI processes.
   There are 16 MPI processes running on the same node as the root process.
   Each MPI process is using: 
               1 threads for simulation cell FFTs.
               1 threads for parallel FFT box operations.
               8 threads for loops over batched FFT box operations.
               8 threads in other parallel regions.
   MPI Interface: S1 (use mpi_f08) (-DMPI -DUSE_MPI_F08).
   MPI_ASYNC_PROTECTS_NONBLOCKING: Yes. MPI_SUBARRAYS_SUPPORTED: Yes.
   GPU Interface: None.
... done

Basic input checks...
Resetting ngwf_cg_rotate to TRUE for EDFT calculations
... done

Reading geometry and species blocks from file "graphite.dat" ...
  Reading POSITIONS geometry from str.xyz

  <species_atomic_set> block not found: NGWF initialisation set to SOLVE
IS: Dielectric excluded regions:
    - NONE.
IS: Assigning soft sphere radii for soft sphere solvation...
IS: No soft sphere radii specified. Default Alvarez radii used for all atoms.

----------- SOFT SPHERE RADII -----------
Li  5.333
C   4.442
-----------------------------------------

    
  Number of PPD points along a3 set to 1.  This is 
  the default value, it may have been provided also in the input file.
... done


--------------------------------------------------------------------------------
---------------------------------- INPUT FILE ----------------------------------
--------------------------------------------------------------------------------

task geometryoptimization                                                       
geom_method LBFGS                                                               
geom_continuation T                                                             
write_xyz T                                                                     
edft_grand_canonical T                                                          
edft_reference_potential  -4.42 eV                                              
edft_electrode_potential -0.10 V                                                
edft_nelec_thres 0.000001                                                       
is_dielectric_function soft_sphere                                              
is_implicit_solvent T                                                           
is_smeared_ion_rep T                                                            
is_include_apolar T                                                             
is_solvation_properties F                                                       
is_pbe                    full                                                  
is_pbe_temperature        298.15                                                
is_pbe_bc_debye_screening T                                                     
is_pbe_neutralisation_scheme counterions_auto                                   
is_pbe_energy_tolerance 1E+50                                                   
is_bc_coarseness 5                                                              
is_bc_threshold 1E-9                                                            
is_bulk_permittivity 90.7                                                       
is_solvent_surf_tension 0.0506 N/m                                              
%block sol_ions                                                                 
Li  +1 1.0                                                                      
PF6 -1 1.0                                                                      
%endblock sol_ions                                                              
is_steric_pot_type M                                                            
is_hc_steric_dens_isovalue  0.001                                               
is_hc_steric_smearing         0.4 bohr                                          
is_steric_write T                                                               
%block species_solvent_radius                                                   
Li 3.0                                                                          
C 3.0                                                                           
%endblock species_solvent_radius                                                
multigrid_bc:   P P P                                                           
ion_ion_bc:     P P P                                                           
pspot_bc:       P P P                                                           
smeared_ion_bc: P P P                                                           
mg_max_iters_vcycle 500                                                         
mg_vcyc_smoother_iter_pre 4                                                     
mg_vcyc_smoother_iter_post 4                                                    
mg_max_res_ratio 1000.0                                                         
mg_max_iters_newton 300                                                         
edft                    : T                                                     
edft_smearing_width     : 0.1 eV                                                
spin                    : 0.0                                                   
edft_spin_fix           : 2                                                     
spin_polarized          : T                                                     
cutoff_energy :  1000 eV                                                        
kernel_cutoff : 1000 bohr                                                       
xc_functional PBE                                                               
dispersion 4                                                                    
output_detail VERBOSE                                                           
do_properties T                                                                 
cube_format F                                                                   
dx_format F                                                                     
write_denskern T                                                                
write_tightbox_ngwfs T                                                          
write_hamiltonian T                                                             
%block species                                                                  
Li Li 3  5  8.0                                                                 
C  C  6  4  8.0                                                                 
%endblock species                                                               
%block species_pot                                                              
Li '/work/e89/e89/arihant/pseudo/Li.usp'                                        
C '/work/e89/e89/arihant/pseudo/C.usp'                                          
%endblock species_pot                                                           
%BLOCK LATTICE_CART                                                             
ang                                                                             
34.16920551     0.00000000     0.00000000                                       
0.00000000    19.72760000     0.00000000                                        
0.00000000     0.00000000   100.02798000                                        
%ENDBLOCK LATTICE_CART                                                          
positions_xyz_file str.xyz                                                      
     Hash =   000002704681623869758503

--------------------------------------------------------------------------------
-------------------------------- END INPUT FILE --------------------------------
--------------------------------------------------------------------------------


 
 ESDF WARNING(1): "ispbeenergytolerance" (esdf_physical) has no units. Assume "hartree".
<<<<<<<<<<<<<<<<<<<<<<<<<<<<<<<<< Full system >>>>>>>>>>>>>>>>>>>>>>>>>>>>>>>>>>
<<<<<<<<<<<<<<<<<<<<<<<<< Pseudopotential information >>>>>>>>>>>>>>>>>>>>>>>>>>
File: /work/e89/e89/arihant/pseudo/Li.usp [ 2001 points up to Gmax=  52.9 (1/bohr)]
  Atomic number:  3;  ionic charge:  3.000000
    Shell 1: l = 0; rc = 1.19 bohr
    Shell 2: l = 0; rc = 1.25 bohr
File: /work/e89/e89/arihant/pseudo/C.usp [ 2001 points up to Gmax=  52.9 (1/bohr)]
  Atomic number:  6;  ionic charge:  4.000000
    Shell 1: l = 0; rc = 1.19 bohr
  Core charge supplied for Nonlinear Core Corrections
<<<<<<<<<<<<<<<<<<<<<<<<<<<<<<<<<<<<<<<<>>>>>>>>>>>>>>>>>>>>>>>>>>>>>>>>>>>>>>>>

-------------------------- Atom counting information ---------------------------
Symbol    Natoms    Nngwfs    Nprojs
  Li        33       165        66
  C        512      2048       512
.......   ......    ......    ......
Totals:    545      2213       578
--------------------------------------------------------------------------------

=============================== PSINC grid sizes ===============================
                      Simulation cell:  143 x  91 x 416
                              FFT-box:  117 x  91 x 117
                                  PPD:   11 x   7 x   1
Grid space d1=  0.451541543008a0 (KE cutoff=  37.25706Eh =1013.81618eV)
Grid space d2=  0.409667706512a0 (KE cutoff=  45.26271Eh =1231.66098eV)
Grid space d3=  0.454388192297a0 (KE cutoff=  36.79171Eh =1001.15326eV)
================================================================================
  
WARNING in cell_grid_distribute:
Average of less than one 23-slab per proc, so workload cannot be
equally balanced between procs.

********************* Fourier parallelisation information **********************
       Coarse grid (whole simulation cell) dimensions:    143    91   416
          Real-space ('12') slabs/proc (min max mean):      3     4     3
         Recip-space ('23') slabs/proc (min max mean):      0     1     0
********************************************************************************

********************* Fourier parallelisation information **********************
       Double grid (whole simulation cell) dimensions:    286   182   832
          Real-space ('12') slabs/proc (min max mean):      6     7     6
         Recip-space ('23') slabs/proc (min max mean):      1     2     1
********************************************************************************

********************* Fourier parallelisation information **********************
         Fine grid (whole simulation cell) dimensions:    288   184   832
          Real-space ('12') slabs/proc (min max mean):      6     7     6
         Recip-space ('23') slabs/proc (min max mean):      1     2     1
         Grid scale modified to satisfy multigrid solver grid constraints
         Grid scale values after modifification:         2.01  2.02  2.00
********************************************************************************
ONETEP fine grid is 288 x 184 x 832 gridpoints, 64.5704 x 37.2798 x 189.0255 bohr.
FD multigrid is     288 x 184 x 832 gridpoints, 64.5704 x 37.2798 x 189.0255 bohr.


Atom SCF Calculation for Li : Z (AE atom) =   3 : Z (PS atom) =   3
Config String:
Orbitals (num,occ):  3     2.00 1.00 0.00
Orbitals   (num,l):  3        0    0    1
Real-space Grid (nr,dr,rmax): 1343    0.0059612519    8.0000000000
Spherical Bessel Basis (nsws,lmax,cutoff):   37    1  220.4959463253
Confining potential (l,width,scale):  0    3.0000000000  100.0000000000
Confining potential (l,width,scale):  1    3.0000000000  100.0000000000
  1         -3.7050169094   -5.2301177776    2.5388568852   -0.9989538802
  2         -6.0510920273   -4.2679357854    3.2724001845   -1.3422946715
  3         -6.7975021434   -3.8722499620    3.6648237887   -1.5325279919
  4         -7.0147472228   -3.7673066376    3.7864613280   -1.5966989055
  5         -7.0774132854   -3.7446783348    3.8157063634   -1.6161454686
  6         -7.0951992563   -3.7420177453    3.8204515040   -1.6217593843
  7         -7.1001226024   -3.7430426481    3.8200527077   -1.6233132433
  8         -7.1014239576   -3.7441529610    3.8191274553   -1.6237164860
  9         -7.1017352306   -3.7448434699    3.8184905098   -1.6238077213
 10         -7.1017916056   -3.7452114113    3.8181373932   -1.6238209669
 11         -7.1017908912   -3.7453946820    3.8179578223   -1.6238181917
 12         -7.1017822190   -3.7454828903    3.8178702968   -1.6238141227
 13         -7.1017768840   -3.7455162316    3.8178369316   -1.6238119017
 14         -7.1017732849   -3.7455353767    3.8178176959   -1.6238104459
 15         -7.1017709700   -3.7455463461    3.8178066371   -1.6238095253
 16         -7.1017695244   -3.7455526225    3.8178002910   -1.6238089565
 17         -7.1017686390   -3.7455562110    3.8177966534   -1.6238086105
 18         -7.1017681040   -3.7455582619    3.8177945697   -1.6238084022
 19         -7.1017677838   -3.7455594341    3.8177933764   -1.6238082778
 20         -7.1017675934   -3.7455601042    3.8177926929   -1.6238082039
 21         -7.1017674808   -3.7455604874    3.8177923014   -1.6238081602
 22         -7.1017674145   -3.7455607066    3.8177920771   -1.6238081344
Atom SCF converged after  22 iterations to a total energy of     -7.10176741

Atom SCF Calculation for C  : Z (AE atom) =   6 : Z (PS atom) =   4
Config String:
Orbitals (num,occ):  2     2.00 2.00
Orbitals   (num,l):  2        0    1
Real-space Grid (nr,dr,rmax): 1343    0.0059612519    8.0000000000
Spherical Bessel Basis (nsws,lmax,cutoff):   37    1  220.4959463253
Confining potential (l,width,scale):  0    3.0000000000  100.0000000000
Confining potential (l,width,scale):  1    3.0000000000  100.0000000000
  1         -5.8177092822   -1.2555419264    4.5135233515   -1.7471920893
  2         -5.6032261188   -1.3440047989    4.4246587726   -1.7090653419
  3         -5.5936068668   -1.3561735374    4.4140765627   -1.7034094417
  4         -5.5958505747   -1.3587284552    4.4121342699   -1.7022848669
  5         -5.5969687665   -1.3601698222    4.4109982405   -1.7017057890
  6         -5.5975400979   -1.3609792837    4.4103423276   -1.7013975981
  7         -5.5978435204   -1.3614297943    4.4099696476   -1.7012314972
  8         -5.5980096069   -1.3616786122    4.4097605138   -1.7011416075
  9         -5.5981021113   -1.3618152853    4.4096441572   -1.7010929151
 10         -5.5981539939   -1.3618900852    4.4095797860   -1.7010665406
 11         -5.5981831160   -1.3619309228    4.4095443105   -1.7010522599
 12         -5.5981994243   -1.3619531807    4.4095248124   -1.7010445305
 13         -5.5982085235   -1.3619652972    4.4095141175   -1.7010403487
 14         -5.5982135796   -1.3619718867    4.4095082606   -1.7010380870
 15         -5.5982163780   -1.3619754676    4.4095050573   -1.7010368642
 16         -5.5982179208   -1.3619774123    4.4095033073   -1.7010362032
 17         -5.5982187685   -1.3619784678    4.4095023522   -1.7010358460
 18         -5.5982192328   -1.3619790404    4.4095018314   -1.7010356530
 19         -5.5982194864   -1.3619793509    4.4095015476   -1.7010355488
 20         -5.5982196245   -1.3619795192    4.4095013931   -1.7010354925
 21         -5.5982196995   -1.3619796104    4.4095013090   -1.7010354621
Atom SCF converged after  21 iterations to a total energy of     -5.59821970

BC: Task: GEOMETRYOPTIMIZATION
BC: +++++++++++++++ Summary of boundary conditions ++++++++++++++
BC: |       Component       |     Keyword     |   Periodicity   |
BC: |                       |                 |     X  Y  Z [1] |
BC: |-----------------------------------------------------------|
BC: | Ion-ion               | ion_ion_bc [2]  |     P  P  P     |
BC: | Local pseudopotential | pspot_bc [3]    |     P  P  P     |
BC: | Multigrid solver      | multigrid_bc    |     P  P  P     |
BC: | Smeared ions          | smeared_ion_bc  |     P  P  P     |
BC: | Van der Waals         | vdw_bc          |     P  P  P     |
BC: +++++++++++++++++++++++++++++++++++++++++++++++++++++++++++++
BC: P: Periodic, O: Open.
BC: [1] Not strictly along X, Y, Z but rather along lattice vectors A1, A2, A3.
BC: [2] Also affected by: pbc_correction_cutoff, cutoff_coulomb_type,
BC:     is_smeared_ion_rep, is_implicit_solvent, openbc_ion_ion.
BC: [3] Also affected by: is_smeared_ion_rep, is_implicit_solvent, openbc_pspot.

================================================================================
<<<<<<<<<<<<<<<< Resuming previous ONETEP Geometry Optimisation >>>>>>>>>>>>>>>>
================================================================================

 Geometry Optimisation: output file is "graphite.geom"
 
 Reading continuation file "graphite.continuation" ...done
 Geometry Optimisation: read_tightbox_ngwfs parameter over-ridden to TRUE
 Geometry Optimisation: read_hamiltonian parameter over-ridden to T
 
                           -------------------------------
                                     Cell Contents
                           -------------------------------
 
            xxxxxxxxxxxxxxxxxxxxxxxxxxxxxxxxxxxxxxxxxxxxxxxxxxxxxxxxxxxx
            x  Element    Atom      Absolute co-ordinates of atoms     x
            x            Number        x           y           z       x
            x----------------------------------------------------------x
            x    Li        1       16.221122    9.201606   16.463364   x
            x    C         2       18.934687    9.193636   12.906484   x
            x    C         3       13.508417    9.193555   12.913213   x
            x    C         4       14.861940   11.545395   12.912218   x
            x    C         5       17.581149   11.545501   12.909911   x
            x    C         6       51.198576   27.834251   12.949062   x
            x    C         7       45.812135   27.834180   12.952666   x
            x    C         8       47.155809   30.169544   12.949535   x
            x    C         9       49.855268   30.169497   12.948572   x
            x    C        10       14.861775    6.841400   12.909968   x
            x    C        11       17.581304    6.841430   12.907701   x
            x    C        12       21.610980   13.864260   12.941230   x
            x    C        13       18.920359   13.871357   12.921056   x
            x    C        14       13.522476   13.871193   12.924188   x
            x    C        15       14.867892   16.192089   12.947913   x
            x    C        16       17.574702   16.192060   12.948305   x
            x    C        17       47.155512   25.498420   12.952666   x
            x    C        18       49.855445   25.498586   12.951575   x
            x    C        19       53.880779   32.493883   12.958217   x
            x    C        20       51.192307   32.493747   12.935234   x
            x    C        21       45.818612   32.493613   12.935597   x
            x    C        22       47.155660   34.817799   12.957924   x
            x    C        23       49.855331   34.817981   12.956827   x
            x    C        24       14.867864    2.194931   12.942837   x
            x    C        25       17.574538    2.195048   12.943172   x
            x    C        26       22.952118    2.189792   12.956460   x
            x    C        27        9.490034    2.189705   12.958871   x
            x    C        28       63.290818    2.208081   12.963729   x
            x    C        29        6.787948    2.191792   12.962827   x
            x    C        30       31.022158    2.206260   12.963408   x
            x    C        31        1.419266    2.206573   12.962967   x
            x    C        32       25.653954    2.191725   12.962634   x
            x    C        33       33.720725    2.207650   12.965745   x
            x    C        34       39.088448    2.197346   12.968767   x
            x    C        35       55.223801    2.197941   12.965401   x
            x    C        36       57.922850    2.197813   12.964777   x
            x    C        37       47.156091    2.209607   12.955420   x
            x    C        38       41.787313    2.197702   12.967722   x
            x    C        39       49.854873    2.209636   12.953915   x
            x    C        40       18.920436    4.515678   12.914410   x
            x    C        41       13.522266    4.515649   12.917560   x
            x    C        42       10.831462    4.523375   12.944562   x
            x    C        43       26.998971    4.528694   12.959642   x
            x    C        44        5.443014    4.528698   12.959618   x
            x    C        45       21.611121    4.523572   12.940923   x
            x    C        46       59.264766    4.534006   12.961238   x
            x    C        47        2.755732    4.531180   12.942932   x
            x    C        48       35.058648    4.532417   12.948504   x
            x    C        49       61.952663    4.532828   12.944412   x
            x    C        50       29.686161    4.531028   12.944402   x
            x    C        51       43.130712    4.533983   12.965730   x
            x    C        52       51.191488    4.534122   12.941650   x
            x    C        53       37.746441    4.533548   12.967896   x
            x    C        54       53.880010    4.534265   12.965390   x
            x    C        55       45.819221    4.533966   12.943303   x
            x    C        56       22.958327    6.864724   12.937528   x
            x    C        57       63.290899    6.857716   12.967845   x
            x    C        58        6.787373    6.866896   12.951242   x
            x    C        59       31.022512    6.857133   12.967798   x
            x    C        60       39.089065    6.869463   12.963524   x
            x    C        61       57.922209    6.869810   12.959009   x
            x    C        62        1.419155    6.857237   12.965809   x
            x    C        63        9.484267    6.864599   12.943698   x
            x    C        64       25.654912    6.867086   12.950729   x
            x    C        65       33.720828    6.857457   12.971504   x
            x    C        66       55.223895    6.870074   12.961952   x
            x    C        67       47.156059    6.858329   12.968138   x
            x    C        68       41.787163    6.869670   12.964853   x
            x    C        69       49.854798    6.858532   12.966340   x
            x    C        70       51.197631    9.194472   12.963777   x
            x    C        71       59.258461    9.194616   12.941025   x
            x    C        72        2.762868    9.194538   12.959063   x
            x    C        73       26.992985    9.194197   12.934675   x
            x    C        74       35.065568    9.194680   12.967208   x
            x    C        75       43.124586    9.194170   12.947483   x
            x    C        76       53.886055    9.194442   12.944343   x
            x    C        77       61.945926    9.194875   12.964189   x
            x    C        78        5.449232    9.194057   12.934011   x
            x    C        79       21.626317    9.193702   12.913588   x
            x    C        80       29.679138    9.194549   12.962073   x
            x    C        81       37.753001    9.194341   12.945558   x
            x    C        82       45.812873    9.194324   12.968735   x
            x    C        83       10.816616    9.193556   12.921893   x
            x    C        84       47.156208   11.529996   12.965526   x
            x    C        85       55.223749   11.518934   12.966727   x
            x    C        86       63.291311   11.531608   12.961562   x
            x    C        87       31.022532   11.531786   12.961286   x
            x    C        88       39.088741   11.519241   12.967000   x
            x    C        89       49.854532   11.529994   12.963781   x
            x    C        90       57.922518   11.519467   12.962834   x
            x    C        91        1.419233   11.531756   12.959488   x
            x    C        92       33.720477   11.531536   12.964989   x
            x    C        93       41.787227   11.518762   12.969280   x
            x    C        94        6.787413   11.521009   12.953879   x
            x    C        95       22.958027   11.522959   12.942208   x
            x    C        96       25.655007   11.521289   12.953301   x
            x    C        97        9.484596   11.522694   12.948300   x
            x    C        98       45.819109   13.854318   12.948894   x
            x    C        99       43.130495   13.854728   12.967622   x
            x    C       100       51.191513   13.854420   12.947107   x
            x    C       101       59.265140   13.855592   12.959583   x
            x    C       102       35.058294   13.856504   12.946849   x
            x    C       103       53.880122   13.854928   12.967198   x
            x    C       104       61.953075   13.856484   12.943149   x
            x    C       105       29.685820   13.857770   12.942011   x
            x    C       106       37.746101   13.855494   12.965935   x
            x    C       107        2.756196   13.857577   12.940697   x
            x    C       108       26.998682   13.860177   12.955573   x
            x    C       109        5.443440   13.859768   12.955515   x
            x    C       110       10.831745   13.864067   12.944713   x
            x    C       111       47.155766   16.178731   12.970502   x
            x    C       112       55.224166   16.190853   12.962845   x
            x    C       113       41.786843   16.190670   12.965554   x
            x    C       114       49.855004   16.178846   12.968891   x
            x    C       115       39.088330   16.191336   12.963932   x
            x    C       116       63.291147   16.181148   12.968755   x
            x    C       117       31.021470   16.182703   12.967464   x
            x    C       118       57.922955   16.191361   12.959914   x
            x    C       119       33.720479   16.181316   12.970492   x
            x    C       120        6.788672   16.196169   12.952301   x
            x    C       121        1.420076   16.182372   12.967079   x
            x    C       122       25.653433   16.196607   12.952187   x
            x    C       123       22.951971   16.198010   12.945967   x
            x    C       124        9.490359   16.197761   12.948346   x
            x    C       125       51.198073   18.514724   12.962599   x
            x    C       126       45.812444   18.514680   12.966917   x
            x    C       127       43.123752   18.514883   12.947236   x
            x    C       128       53.886901   18.514994   12.944706   x
            x    C       129       35.063296   18.517269   12.967784   x
            x    C       130       59.260009   18.515900   12.943922   x
            x    C       131       37.751353   18.515852   12.947221   x
            x    C       132       61.948065   18.517122   12.967096   x
            x    C       133       29.677495   18.518355   12.963659   x
            x    C       134        2.764020   18.517984   12.962708   x
            x    C       135       26.989313   18.520167   12.940609   x
            x    C       136        5.452338   18.519711   12.940911   x
            x    C       137       10.831134   18.522719   12.932830   x
            x    C       138       18.919641   18.523764   12.949591   x
            x    C       139       21.611168   18.523007   12.931882   x
            x    C       140       13.522659   18.523618   12.949558   x
            x    C       141       47.155683   20.850245   12.957078   x
            x    C       142       49.855168   20.850203   12.955978   x
            x    C       143       55.224296   20.839256   12.966134   x
            x    C       144       41.786745   20.839233   12.967493   x
            x    C       145       31.020611   20.853492   12.961932   x
            x    C       146       39.087553   20.839881   12.967868   x
            x    C       147       63.292226   20.852239   12.963978   x
            x    C       148       33.719319   20.852451   12.964666   x
            x    C       149       57.923702   20.839991   12.964884   x
            x    C       150        1.420703   20.853144   12.962758   x
            x    C       151        6.792445   20.843086   12.967588   x
            x    C       152       22.947712   20.844172   12.962486   x
            x    C       153       25.649176   20.843474   12.966401   x
            x    C       154       14.870040   20.858960   12.950769   x
            x    C       155        9.494166   20.843682   12.965172   x
            x    C       156       17.571916   20.859067   12.951633   x
            x    C       157       51.192351   23.174380   12.934970   x
            x    C       158       45.818416   23.174320   12.935422   x
            x    C       159       43.129951   23.174831   12.959363   x
            x    C       160       59.267032   23.175525   12.960519   x
            x    C       161       37.744039   23.175498   12.965163   x
            x    C       162       53.880835   23.174928   12.960855   x
            x    C       163       26.992529   23.177961   12.965707   x
            x    C       164       35.056150   23.176143   12.946561   x
            x    C       165        2.759057   23.177065   12.945965   x
            x    C       166       29.682233   23.177450   12.944647   x
            x    C       167       61.955041   23.176018   12.945218   x
            x    C       168       10.839813   23.178483   12.964435   x
            x    C       169       18.911875   23.179235   12.940937   x
            x    C       170        5.448782   23.177549   12.967874   x
            x    C       171       21.601899   23.178730   12.962431   x
            x    C       172       13.529865   23.179048   12.941430   x
            x    C       173       55.224723   25.510431   12.956305   x
            x    C       174       31.018974   25.501164   12.966113   x
            x    C       175       39.087317   25.510419   12.959771   x
            x    C       176       63.293390   25.499442   12.969826   x
            x    C       177        6.793197   25.512665   12.963287   x
            x    C       178       25.648044   25.513035   12.961463   x
            x    C       179       33.717994   25.499572   12.969098   x
            x    C       180       41.786398   25.510213   12.957231   x
            x    C       181       57.923935   25.510508   12.957442   x
            x    C       182        1.422149   25.500875   12.968429   x
            x    C       183       22.946825   25.511172   12.962081   x
            x    C       184       14.870203   25.500304   12.969185   x
            x    C       185        9.494553   25.510939   12.965398   x
            x    C       186       17.571338   25.500326   12.969672   x
            x    C       187       18.917295   27.833904   12.967772   x
            x    C       188       26.986774   27.834193   12.941191   x
            x    C       189       35.061535   27.834551   12.965543   x
            x    C       190       59.261519   27.834394   12.940974   x
            x    C       191        2.766114   27.834371   12.962041   x
            x    C       192       10.833652   27.833673   12.947452   x
            x    C       193       21.607730   27.833907   12.945580   x
            x    C       194       29.674891   27.834522   12.960735   x
            x    C       195       37.749768   27.834247   12.942968   x
            x    C       196       53.887345   27.834216   12.935310   x
            x    C       197       61.949692   27.834566   12.966615   x
            x    C       198        5.454312   27.833911   12.943101   x
            x    C       199       13.524164   27.833750   12.968415   x
            x    C       200       43.123484   27.834045   12.936753   x
            x    C       201       14.870301   30.166882   12.966474   x
            x    C       202       22.946764   30.156739   12.966636   x
            x    C       203       31.019280   30.167654   12.959853   x
            x    C       204       63.293327   30.169413   12.963360   x
            x    C       205        6.792761   30.155197   12.966884   x
            x    C       206       17.571067   30.166990   12.966967   x
            x    C       207       25.648350   30.155349   12.965238   x
            x    C       208       33.717964   30.169338   12.962726   x
            x    C       209        1.421733   30.167714   12.962232   x
            x    C       210        9.494532   30.156475   12.969743   x
            x    C       211       39.087245   30.158063   12.962273   x
            x    C       212       55.224447   30.158201   12.959793   x
            x    C       213       57.924000   30.158323   12.959839   x
            x    C       214       41.786697   30.158070   12.960722   x
            x    C       215       13.529568   32.488008   12.946604   x
            x    C       216       10.839387   32.489102   12.965853   x
            x    C       217       18.911952   32.488087   12.946310   x
            x    C       218       26.992891   32.490854   12.963881   x
            x    C       219        2.758593   32.491401   12.944421   x
            x    C       220       21.602126   32.489252   12.964141   x
            x    C       221       29.682574   32.491333   12.943257   x
            x    C       222       61.954729   32.492840   12.942742   x
            x    C       223        5.448256   32.490800   12.965840   x
            x    C       224       35.056406   32.492619   12.944203   x
            x    C       225       59.266846   32.493654   12.956222   x
            x    C       226       37.744244   32.493361   12.960848   x
            x    C       227       43.130091   32.493622   12.956707   x
            x    C       228       14.869617   34.808069   12.965658   x
            x    C       229       22.948225   34.823506   12.960148   x
            x    C       230        9.493367   34.823523   12.962742   x
            x    C       231       17.572044   34.808119   12.966602   x
            x    C       232        6.791980   34.824674   12.962610   x
            x    C       233       31.020825   34.815313   12.966836   x
            x    C       234       63.291507   34.816601   12.967937   x
            x    C       235       25.649361   34.824767   12.961515   x
            x    C       236        1.420326   34.815457   12.967460   x
            x    C       237       39.088066   34.828496   12.957401   x
            x    C       238       33.719869   34.816335   12.968882   x
            x    C       239       57.923273   34.828861   12.954536   x
            x    C       240       55.224331   34.829306   12.955216   x
            x    C       241       41.786878   34.828918   12.956387   x
            x    C       242       18.919746   37.143627   12.957511   x
            x    C       243       13.522331   37.143624   12.957457   x
            x    C       244       10.830656   37.144392   12.939418   x
            x    C       245       21.611367   37.144472   12.938449   x
            x    C       246        2.763337   37.150877   12.963740   x
            x    C       247       26.989738   37.148120   12.943238   x
            x    C       248        5.451661   37.148163   12.943538   x
            x    C       249       29.677912   37.150747   12.964685   x
            x    C       250       61.947572   37.152185   12.965954   x
            x    C       251       35.063715   37.151825   12.966886   x
            x    C       252       59.259617   37.153071   12.941404   x
            x    C       253       37.751728   37.152646   12.944689   x
            x    C       254       43.123989   37.153207   12.940322   x
            x    C       255       51.198001   37.153890   12.953971   x
            x    C       256       53.886760   37.153484   12.938193   x
            x    C       257       45.812694   37.153733   12.958215   x
            x    Li      258        0.053049   37.124195    9.395524   x
            x    Li      259        0.055470   27.804730    9.395230   x
            x    Li      260        0.053403   18.483501    9.395444   x
            x    Li      261        0.049820    9.163340    9.394237   x
            x    Li      262        8.137314   32.458015    9.396501   x
            x    Li      263        8.137495   23.149122    9.396880   x
            x    Li      264        8.123865   13.838878    9.384189   x
            x    Li      265        8.124035    4.489614    9.387955   x
            x    Li      266       16.224491    9.165221    9.373675   x
            x    Li      267       16.226792   18.506849    9.381173   x
            x    Li      268       16.226636   27.804373    9.395719   x
            x    Li      269       16.226909   37.100860    9.388753   x
            x    Li      270       24.313638   32.458042    9.394039   x
            x    Li      271       24.313792   23.148913    9.394196   x
            x    Li      272       24.329553   13.839652    9.382305   x
            x    Li      273       24.329117    4.489077    9.386182   x
            x    Li      274       32.386206   37.124580    9.395509   x
            x    Li      275       32.383671   27.804574    9.393078   x
            x    Li      276       32.385581   18.483112    9.395421   x
            x    Li      277       32.390202    9.163109    9.396466   x
            x    Li      278       40.439277   32.462377    9.387699   x
            x    Li      279       40.440235   23.144786    9.391677   x
            x    Li      280       40.441336   13.825925    9.395826   x
            x    Li      281       40.441343    4.502693    9.396173   x
            x    Li      282       48.486624   37.127743    9.385435   x
            x    Li      283       48.486844   27.802634    9.379716   x
            x    Li      284       48.486697   18.481638    9.393626   x
            x    Li      285       48.486340    9.162919    9.396361   x
            x    Li      286       56.547686   32.462490    9.386231   x
            x    Li      287       56.546807   23.144691    9.390333   x
            x    Li      288       56.545841   13.826080    9.393066   x
            x    Li      289       56.545733    4.502739    9.393209   x
            x    C       290       18.916842    9.194066    5.839003   x
            x    C       291       13.524693    9.193965    5.840131   x
            x    C       292       14.869713   11.530566    5.842082   x
            x    C       293       17.571894   11.530677    5.842280   x
            x    C       294       51.199652   27.833812    5.805314   x
            x    C       295       45.810985   27.833793    5.802076   x
            x    C       296       47.155273   30.169367    5.806894   x
            x    C       297       49.855704   30.169290    5.809314   x
            x    C       298       14.869517    6.857038    5.833419   x
            x    C       299       17.572073    6.857078    5.833598   x
            x    C       300       21.599464   13.855365    5.820506   x
            x    C       301       18.910526   13.855601    5.847706   x
            x    C       302       13.531104   13.855565    5.847627   x
            x    C       303       14.869776   16.180097    5.813476   x
            x    C       304       17.571864   16.180073    5.813648   x
            x    C       305       47.154962   25.497830    5.797722   x
            x    C       306       49.855826   25.497971    5.800233   x
            x    C       307       53.881652   32.494261    5.805712   x
            x    C       308       51.193563   32.493955    5.827479   x
            x    C       309       45.817319   32.493875    5.826574   x
            x    C       310       47.155077   34.818577    5.804030   x
            x    C       311       49.855864   34.818720    5.806551   x
            x    C       312       14.869981    2.207441    5.820539   x
            x    C       313       17.571503    2.207564    5.820580   x
            x    C       314       22.943220    2.197247    5.810257   x
            x    C       315        9.498134    2.196976    5.811495   x
            x    C       316       63.295621    2.209639    5.816989   x
            x    C       317        6.796255    2.197116    5.808770   x
            x    C       318       31.015320    2.209053    5.818496   x
            x    C       319        1.425713    2.209143    5.819698   x
            x    C       320       25.644995    2.197224    5.807044   x
            x    C       321       33.715717    2.209407    5.817486   x
            x    C       322       39.085199    2.198683    5.812986   x
            x    C       323       55.225177    2.198926    5.807322   x
            x    C       324       57.925928    2.199070    5.812645   x
            x    C       325       47.155294    2.209887    5.808182   x
            x    C       326       41.785854    2.198717    5.811010   x
            x    C       327       49.855564    2.209897    5.810246   x
            x    C       328       18.910450    4.531995    5.845006   x
            x    C       329       13.531098    4.531897    5.845055   x
            x    C       330       10.842014    4.532757    5.820756   x
            x    C       331       26.989361    4.533680    5.809263   x
            x    C       332        5.451882    4.533562    5.812372   x
            x    C       333       21.599465    4.532972    5.821534   x
            x    C       334       59.269193    4.534595    5.818042   x
            x    C       335        2.763401    4.533743    5.834705   x
            x    C       336       35.053846    4.533867    5.834946   x
            x    C       337       61.957281    4.534140    5.834999   x
            x    C       338       29.677776    4.533753    5.833723   x
            x    C       339       43.129483    4.534319    5.814218   x
            x    C       340       51.193213    4.534353    5.829548   x
            x    C       341       37.741795    4.534220    5.818004   x
            x    C       342       53.881151    4.534616    5.810859   x
            x    C       343       45.817385    4.534191    5.829773   x
            x    C       344       22.943917    6.868792    5.823104   x
            x    C       345       63.295028    6.858726    5.811279   x
            x    C       346        6.796270    6.869018    5.815664   x
            x    C       347       31.015466    6.858615    5.814641   x
            x    C       348       39.085632    6.869416    5.819162   x
            x    C       349       57.925376    6.869770    5.818675   x
            x    C       350        1.425655    6.858613    5.814366   x
            x    C       351        9.497507    6.868649    5.824216   x
            x    C       352       25.645056    6.869204    5.814148   x
            x    C       353       33.716378    6.858447    5.813420   x
            x    C       354       55.225097    6.869929    5.815553   x
            x    C       355       47.154997    6.858656    5.810435   x
            x    C       356       41.785755    6.869485    5.819161   x
            x    C       357       49.855654    6.858852    5.812516   x
            x    C       358       51.199081    9.194236    5.817436   x
            x    C       359       59.263141    9.194362    5.833231   x
            x    C       360        2.769376    9.194437    5.816935   x
            x    C       361       26.983314    9.194091    5.831165   x
            x    C       362       35.059931    9.194415    5.814221   x
            x    C       363       43.123418    9.193851    5.834299   x
            x    C       364       53.887081    9.194151    5.833657   x
            x    C       365       61.951281    9.194700    5.812919   x
            x    C       366        5.457957    9.193982    5.833221   x
            x    C       367       21.605966    9.193849    5.848240   x
            x    C       368       29.671798    9.194414    5.817347   x
            x    C       369       37.747973    9.194010    5.834190   x
            x    C       370       45.811253    9.194107    5.814907   x
            x    C       371       10.835573    9.193675    5.848696   x
            x    C       372       47.155101   11.529177    5.818031   x
            x    C       373       55.224855   11.518563    5.810108   x
            x    C       374       63.295402   11.530164    5.815583   x
            x    C       375       31.015562   11.529854    5.818448   x
            x    C       376       39.085348   11.518703    5.812958   x
            x    C       377       49.855352   11.529137    5.820056   x
            x    C       378       57.925650   11.519017    5.812641   x
            x    C       379        1.425583   11.529975    5.818285   x
            x    C       380       33.716010   11.529919    5.817658   x
            x    C       381       41.785919   11.518356    5.813550   x
            x    C       382        6.796169   11.518923    5.808331   x
            x    C       383       22.943656   11.519093    5.817146   x
            x    C       384       25.645269   11.519025    5.806536   x
            x    C       385        9.497880   11.518893    5.818414   x
            x    C       386       45.817243   13.853382    5.835006   x
            x    C       387       43.129369   13.853871    5.815713   x
            x    C       388       51.193140   13.853473    5.834776   x
            x    C       389       59.269329   13.854553    5.816718   x
            x    C       390       35.053656   13.854340    5.833739   x
            x    C       391       53.881087   13.854121    5.812548   x
            x    C       392       61.957481   13.854555    5.833901   x
            x    C       393       29.677615   13.854593    5.830990   x
            x    C       394       37.741589   13.854307    5.816467   x
            x    C       395        2.763676   13.854625    5.832138   x
            x    C       396       26.989236   13.855077    5.804721   x
            x    C       397        5.452153   13.854955    5.808141   x
            x    C       398       10.842166   13.855277    5.819716   x
            x    C       399       47.154934   16.177767    5.812460   x
            x    C       400       55.225411   16.189411    5.814803   x
            x    C       401       41.785388   16.189121    5.818193   x
            x    C       402       49.855640   16.177931    5.814441   x
            x    C       403       39.085178   16.189387    5.818254   x
            x    C       404       63.295683   16.179132    5.811438   x
            x    C       405       31.014859   16.179532    5.812180   x
            x    C       406       57.925805   16.189596    5.818111   x
            x    C       407       33.715710   16.178984    5.812164   x
            x    C       408        6.796825   16.190924    5.808878   x
            x    C       409        1.426269   16.179511    5.813376   x
            x    C       410       25.644655   16.191102    5.806858   x
            x    C       411       22.943385   16.190917    5.810568   x
            x    C       412        9.498176   16.190865    5.811835   x
            x    C       413       51.199248   18.513497    5.815412   x
            x    C       414       45.811056   18.513416    5.812668   x
            x    C       415       43.123133   18.513492    5.832486   x
            x    C       416       53.887326   18.513648    5.832345   x
            x    C       417       35.059207   18.514706    5.814136   x
            x    C       418       59.263886   18.514171    5.834542   x
            x    C       419       37.747213   18.513988    5.834651   x
            x    C       420       61.952025   18.514841    5.814574   x
            x    C       421       29.670993   18.515353    5.816700   x
            x    C       422        2.770214   18.515282    5.817743   x
            x    C       423       26.982419   18.515358    5.830134   x
            x    C       424        5.458936   18.515243    5.832796   x
            x    C       425       10.836713   18.515446    5.828688   x
            x    C       426       18.916026   18.515914    5.805821   x
            x    C       427       21.604940   18.515580    5.827808   x
            x    C       428       13.525636   18.515873    5.807380   x
            x    C       429       47.155164   20.848628    5.810724   x
            x    C       430       49.855395   20.848578    5.813202   x
            x    C       431       55.225508   20.838161    5.808381   x
            x    C       432       41.785361   20.838106    5.810650   x
            x    C       433       31.014350   20.850316    5.819213   x
            x    C       434       39.084531   20.838485    5.812492   x
            x    C       435       63.296486   20.850150    5.817573   x
            x    C       436       33.714954   20.850099    5.817704   x
            x    C       437       57.926521   20.838678    5.813158   x
            x    C       438        1.426766   20.850290    5.820833   x
            x    C       439        6.797295   20.839697    5.813130   x
            x    C       440       22.942761   20.840101    5.809815   x
            x    C       441       25.644133   20.839783    5.810622   x
            x    C       442       14.870044   20.851146    5.805087   x
            x    C       443        9.498736   20.839890    5.812094   x
            x    C       444       17.571598   20.851201    5.804832   x
            x    C       445       51.193435   23.173247    5.824451   x
            x    C       446       45.817149   23.173205    5.823434   x
            x    C       447       43.129025   23.173648    5.808247   x
            x    C       448       59.270264   23.174264    5.816812   x
            x    C       449       37.740740   23.174145    5.815346   x
            x    C       450       53.881628   23.173766    5.806814   x
            x    C       451       26.987835   23.175183    5.813647   x
            x    C       452       35.052583   23.174279    5.833841   x
            x    C       453        2.765025   23.174676    5.837410   x
            x    C       454       29.676197   23.174793    5.834955   x
            x    C       455       61.958604   23.174348    5.835507   x
            x    C       456       10.842831   23.175205    5.816073   x
            x    C       457       18.910021   23.175175    5.828486   x
            x    C       458        5.453456   23.174993    5.817810   x
            x    C       459       21.598660   23.175352    5.815303   x
            x    C       460       13.531536   23.175118    5.829585   x
            x    C       461       55.226000   25.509212    5.809010   x
            x    C       462       31.013699   25.499050    5.812974   x
            x    C       463       39.084630   25.509257    5.813928   x
            x    C       464       63.296692   25.498791    5.812795   x
            x    C       465        6.797868   25.509946    5.817963   x
            x    C       466       25.643450   25.510178    5.815257   x
            x    C       467       33.714771   25.498796    5.811530   x
            x    C       468       41.785017   25.509020    5.811054   x
            x    C       469       57.926482   25.509370    5.814990   x
            x    C       470        1.427424   25.498950    5.816040   x
            x    C       471       22.942670   25.510140    5.816881   x
            x    C       472       14.869999   25.499147    5.809707   x
            x    C       473        9.498726   25.510011    5.819256   x
            x    C       474       17.571551   25.499104    5.809332   x
            x    C       475       18.915722   27.834140    5.814037   x
            x    C       476       26.981679   27.834161    5.831560   x
            x    C       477       35.058530   27.834281    5.811602   x
            x    C       478       59.264370   27.833934    5.830542   x
            x    C       479        2.770968   27.834326    5.818589   x
            x    C       480       10.837063   27.833803    5.835084   x
            x    C       481       21.604370   27.833971    5.833557   x
            x    C       482       29.670094   27.834391    5.815923   x
            x    C       483       37.746855   27.833820    5.829800   x
            x    C       484       53.887754   27.833676    5.825030   x
            x    C       485       61.952772   27.834340    5.813727   x
            x    C       486        5.459501   27.833954    5.834918   x
            x    C       487       13.525771   27.834036    5.816184   x
            x    C       488       43.123039   27.833537    5.824607   x
            x    C       489       14.870152   30.168577    5.817072   x
            x    C       490       22.942467   30.157999    5.811276   x
            x    C       491       31.013996   30.169330    5.817140   x
            x    C       492       63.296787   30.169516    5.816753   x
            x    C       493        6.797516   30.158045    5.811483   x
            x    C       494       17.571280   30.168705    5.816699   x
            x    C       495       25.643706   30.158204    5.808928   x
            x    C       496       33.714600   30.169456    5.815548   x
            x    C       497        1.427034   30.169316    5.820055   x
            x    C       498        9.498835   30.157757    5.813543   x
            x    C       499       39.084528   30.158388    5.806693   x
            x    C       500       55.225743   30.158409    5.802856   x
            x    C       501       57.926661   30.158569    5.807362   x
            x    C       502       41.785377   30.158298    5.805300   x
            x    C       503       13.531379   32.492333    5.834889   x
            x    C       504       10.842667   32.492873    5.817676   x
            x    C       505       18.910026   32.492474    5.833684   x
            x    C       506       26.987945   32.493594    5.812461   x
            x    C       507        2.764782   32.493457    5.836272   x
            x    C       508       21.598672   32.493073    5.816891   x
            x    C       509       29.676342   32.493506    5.834024   x
            x    C       510       61.958372   32.493831    5.833310   x
            x    C       511        5.453230   32.493441    5.816285   x
            x    C       512       35.052777   32.493704    5.831630   x
            x    C       513       59.270126   32.494241    5.812612   x
            x    C       514       37.740947   32.494086    5.811354   x
            x    C       515       43.129202   32.494064    5.807457   x
            x    C       516       14.869631   34.816381    5.809460   x
            x    C       517       22.943001   34.828006    5.817381   x
            x    C       518        9.498300   34.827859    5.819501   x
            x    C       519       17.571707   34.816381    5.809067   x
            x    C       520        6.797231   34.828253    5.818658   x
            x    C       521       31.014334   34.818111    5.814195   x
            x    C       522       63.295955   34.818243    5.811799   x
            x    C       523       25.643976   34.828460    5.816561   x
            x    C       524        1.426705   34.818054    5.815849   x
            x    C       525       39.085025   34.829257    5.812604   x
            x    C       526       33.715375   34.818140    5.811647   x
            x    C       527       57.926202   34.829448    5.813254   x
            x    C       528       55.225728   34.829661    5.808710   x
            x    C       529       41.785432   34.829348    5.811139   x
            x    C       530       18.915914   37.152061    5.812866   x
            x    C       531       13.525495   37.152014    5.814751   x
            x    C       532       10.836492   37.152041    5.834260   x
            x    C       533       21.604893   37.152243    5.833166   x
            x    C       534        2.769884   37.153439    5.819123   x
            x    C       535       26.982562   37.152717    5.833169   x
            x    C       536        5.458567   37.152565    5.835579   x
            x    C       537       29.671136   37.153462    5.818087   x
            x    C       538       61.951783   37.154039    5.813777   x
            x    C       539       35.059445   37.153843    5.813029   x
            x    C       540       59.263720   37.154071    5.832041   x
            x    C       541       37.747468   37.153748    5.832090   x
            x    C       542       43.123354   37.153865    5.827271   x
            x    C       543       51.199411   37.154448    5.808503   x
            x    C       544       53.887413   37.154121    5.827078   x
            x    C       545       45.811259   37.154332    5.805649   x
            xxxxxxxxxxxxxxxxxxxxxxxxxxxxxxxxxxxxxxxxxxxxxxxxxxxxxxxxxxxx
 

LBFGS: continuation file name is "graphite.continuation"
 LBFGS: Restarting previous  geometry optimization.
 avg_mass=  21334.589798662262
 Enthalpy contributions:
                  total energy=  -2.94059630E+003 Eh
        diagonal pressure term=   0.00000000E+000 Eh
    off-diagonal pressure term=   0.00000000E+000 Eh
 LBFGS: finished iteration   0  with enthalpy= -2.940596301783E+003 Eh
  
 +-----------+-----------------+-----------------+------------+-----+ <-- LBFGS
 | Parameter |      value      |    tolerance    |    units   | OK? | <-- LBFGS
 +-----------+-----------------+-----------------+------------+-----+ <-- LBFGS
 |  dE/ion   |   0.000000E+000 |   1.000000E-006 |         Eh | No  | <-- LBFGS
 |  |F|max   |   2.013366E-003 |   2.000000E-003 |    Eh/Bohr | No  | <-- LBFGS
 |  |dR|max  |   0.000000E+000 |   5.000000E-003 |       Bohr | No  | <-- LBFGS
 +-----------+-----------------+-----------------+------------+-----+ <-- LBFGS
  

================================================================================
 Starting LBFGS iteration    1 ...
================================================================================
 Writing xyz coordinates to file "graphite.xyz" ... done

 Writing continuation file "graphite.continuation" ...done
 Backing up NGWFs to file "graphite.tightbox_ngwfs.bfgs_back" ... done
 Backing up Hamiltonian to file "graphite.ham.bfgs_back" ... done
  
 +------------+-------------+-------------+-----------------+ <-- min LBFGS
 |    Step    |   lambda    |   F.delta   |    enthalpy     | <-- min LBFGS
 +------------+-------------+-------------+-----------------+ <-- min LBFGS
 |  previous  |    0.000000 |    0.000153 |    -2940.596302 | <-- min LBFGS
 +------------+-------------+-------------+-----------------+ <-- min LBFGS
  

--------------------------------------------------------------------------------
 LBFGS: starting iteration   1 with trial guess (lambda=    1.000000)
--------------------------------------------------------------------------------
 
                           -------------------------------
                                     Cell Contents
                           -------------------------------
 
            xxxxxxxxxxxxxxxxxxxxxxxxxxxxxxxxxxxxxxxxxxxxxxxxxxxxxxxxxxxx
            x  Element    Atom      Absolute co-ordinates of atoms     x
            x            Number        x           y           z       x
            x----------------------------------------------------------x
            x    Li        1       16.222227    9.201041   16.473843   x
            x    C         2       18.934080    9.193605   12.906937   x
            x    C         3       13.508906    9.193535   12.913091   x
            x    C         4       14.862031   11.544294   12.912162   x
            x    C         5       17.580953   11.544374   12.909941   x
            x    C         6       51.198201   27.834151   12.949179   x
            x    C         7       45.812437   27.834085   12.952665   x
            x    C         8       47.155884   30.169030   12.949730   x
            x    C         9       49.855088   30.168955   12.948666   x
            x    C        10       14.861795    6.842362   12.910357   x
            x    C        11       17.581159    6.842411   12.908166   x
            x    C        12       21.609609   13.863202   12.940763   x
            x    C        13       18.920361   13.870263   12.920033   x
            x    C        14       13.522353   13.870180   12.923061   x
            x    C        15       14.867546   16.190349   12.947422   x
            x    C        16       17.574961   16.190347   12.947673   x
            x    C        17       47.155533   25.498660   12.952864   x
            x    C        18       49.855337   25.498843   12.951676   x
            x    C        19       53.879754   32.493509   12.957968   x
            x    C        20       51.192198   32.493257   12.934968   x
            x    C        21       45.818680   32.493135   12.935371   x
            x    C        22       47.155554   34.817242   12.957842   x
            x    C        23       49.855342   34.817448   12.956631   x
            x    C        24       14.867594    2.196460   12.942761   x
            x    C        25       17.574763    2.196547   12.942956   x
            x    C        26       22.951353    2.191079   12.956287   x
            x    C        27        9.490701    2.190996   12.958623   x
            x    C        28       63.290821    2.208141   12.963806   x
            x    C        29        6.788039    2.192922   12.962843   x
            x    C        30       31.021957    2.206715   12.963554   x
            x    C        31        1.419369    2.206982   12.962979   x
            x    C        32       25.653815    2.192892   12.962564   x
            x    C        33       33.720678    2.207698   12.965784   x
            x    C        34       39.088194    2.197277   12.968560   x
            x    C        35       55.223246    2.197720   12.965183   x
            x    C        36       57.923001    2.197746   12.964525   x
            x    C        37       47.155908    2.209080   12.955764   x
            x    C        38       41.787803    2.197532   12.967413   x
            x    C        39       49.854959    2.209072   12.954168   x
            x    C        40       18.920438    4.516623   12.913941   x
            x    C        41       13.522175    4.516574   12.916992   x
            x    C        42       10.832765    4.524280   12.944323   x
            x    C        43       26.998427    4.528995   12.959722   x
            x    C        44        5.443463    4.528996   12.959578   x
            x    C        45       21.609719    4.524451   12.940585   x
            x    C        46       59.265678    4.534007   12.961181   x
            x    C        47        2.756526    4.531332   12.942852   x
            x    C        48       35.058334    4.532533   12.948358   x
            x    C        49       61.952967    4.532920   12.944259   x
            x    C        50       29.685259    4.531192   12.944310   x
            x    C        51       43.131241    4.533799   12.965551   x
            x    C        52       51.191758    4.533881   12.941539   x
            x    C        53       37.745446    4.533589   12.967640   x
            x    C        54       53.879458    4.534053   12.965053   x
            x    C        55       45.818925    4.533748   12.943175   x
            x    C        56       22.956994    6.865342   12.937552   x
            x    C        57       63.290753    6.857717   12.967626   x
            x    C        58        6.787935    6.866925   12.951365   x
            x    C        59       31.022092    6.857350   12.967589   x
            x    C        60       39.088742    6.869176   12.963688   x
            x    C        61       57.922423    6.869459   12.959101   x
            x    C        62        1.419474    6.857471   12.965508   x
            x    C        63        9.485435    6.865217   12.943464   x
            x    C        64       25.654254    6.867077   12.950705   x
            x    C        65       33.720944    6.857519   12.971189   x
            x    C        66       55.223377    6.869791   12.961975   x
            x    C        67       47.155786    6.858172   12.967989   x
            x    C        68       41.787621    6.869369   12.964790   x
            x    C        69       49.855002    6.858396   12.966115   x
            x    C        70       51.197890    9.194340   12.963684   x
            x    C        71       59.259688    9.194452   12.940991   x
            x    C        72        2.763247    9.194408   12.959010   x
            x    C        73       26.992508    9.194067   12.934639   x
            x    C        74       35.065091    9.194514   12.967171   x
            x    C        75       43.125121    9.194069   12.947345   x
            x    C        76       53.885518    9.194303   12.944164   x
            x    C        77       61.946368    9.194707   12.964008   x
            x    C        78        5.449595    9.193938   12.934014   x
            x    C        79       21.625285    9.193635   12.912985   x
            x    C        80       29.678603    9.194400   12.961860   x
            x    C        81       37.751699    9.194201   12.945511   x
            x    C        82       45.812591    9.194215   12.968498   x
            x    C        83       10.817452    9.193492   12.920974   x
            x    C        84       47.156004   11.529833   12.965604   x
            x    C        85       55.223196   11.518842   12.966573   x
            x    C        86       63.291244   11.531132   12.961625   x
            x    C        87       31.022207   11.531136   12.961348   x
            x    C        88       39.088356   11.519177   12.967007   x
            x    C        89       49.854666   11.529784   12.963786   x
            x    C        90       57.922810   11.519379   12.962752   x
            x    C        91        1.419448   11.531092   12.959458   x
            x    C        92       33.720516   11.531045   12.964964   x
            x    C        93       41.787756   11.518736   12.969057   x
            x    C        94        6.787880   11.520704   12.953822   x
            x    C        95       22.956662   11.522069   12.941948   x
            x    C        96       25.654402   11.520928   12.953126   x
            x    C        97        9.485815   11.521872   12.947777   x
            x    C        98       45.818809   13.854320   12.948669   x
            x    C        99       43.131010   13.854697   12.967488   x
            x    C       100       51.191775   13.854396   12.946903   x
            x    C       101       59.266030   13.855268   12.959634   x
            x    C       102       35.058051   13.856068   12.946744   x
            x    C       103       53.879593   13.854872   12.966915   x
            x    C       104       61.953336   13.856031   12.943019   x
            x    C       105       29.684952   13.857284   12.941945   x
            x    C       106       37.745136   13.855180   12.965797   x
            x    C       107        2.756951   13.857100   12.940628   x
            x    C       108       26.998174   13.859551   12.955767   x
            x    C       109        5.443850   13.859193   12.955588   x
            x    C       110       10.833000   13.863052   12.944358   x
            x    C       111       47.155536   16.178913   12.970273   x
            x    C       112       55.223714   16.190671   12.962900   x
            x    C       113       41.787239   16.190478   12.965492   x
            x    C       114       49.855172   16.179045   12.968581   x
            x    C       115       39.088178   16.191038   12.964062   x
            x    C       116       63.291034   16.180623   12.968533   x
            x    C       117       31.021266   16.181785   12.967327   x
            x    C       118       57.923021   16.191000   12.960001   x
            x    C       119       33.720568   16.180819   12.970253   x
            x    C       120        6.788789   16.194708   12.952756   x
            x    C       121        1.420184   16.181519   12.966804   x
            x    C       122       25.653265   16.195063   12.952562   x
            x    C       123       22.951335   16.196397   12.946265   x
            x    C       124        9.490878   16.196178   12.948548   x
            x    C       125       51.198101   18.514957   12.962450   x
            x    C       126       45.812374   18.514929   12.966641   x
            x    C       127       43.124523   18.515015   12.947015   x
            x    C       128       53.886128   18.515086   12.944459   x
            x    C       129       35.063414   18.516558   12.967670   x
            x    C       130       59.260474   18.515473   12.943785   x
            x    C       131       37.750854   18.515464   12.947046   x
            x    C       132       61.947932   18.516415   12.966780   x
            x    C       133       29.677043   18.517707   12.963465   x
            x    C       134        2.764397   18.517379   12.962657   x
            x    C       135       26.989540   18.519145   12.940578   x
            x    C       136        5.452094   18.518750   12.940866   x
            x    C       137       10.831886   18.521517   12.932958   x
            x    C       138       18.919548   18.522423   12.949655   x
            x    C       139       21.610345   18.521756   12.931960   x
            x    C       140       13.522735   18.522303   12.949563   x
            x    C       141       47.155640   20.850481   12.957323   x
            x    C       142       49.855132   20.850392   12.956107   x
            x    C       143       55.223499   20.839297   12.965922   x
            x    C       144       41.787491   20.839318   12.967209   x
            x    C       145       31.020354   20.852559   12.962111   x
            x    C       146       39.087706   20.839612   12.967708   x
            x    C       147       63.292049   20.851260   12.964032   x
            x    C       148       33.719450   20.851423   12.964660   x
            x    C       149       57.923466   20.839731   12.964670   x
            x    C       150        1.420879   20.852202   12.962829   x
            x    C       151        6.792282   20.842545   12.967298   x
            x    C       152       22.947446   20.843496   12.962388   x
            x    C       153       25.649329   20.842915   12.966061   x
            x    C       154       14.870302   20.857712   12.951323   x
            x    C       155        9.494374   20.843062   12.964921   x
            x    C       156       17.571664   20.857820   12.952050   x
            x    C       157       51.192254   23.174647   12.934958   x
            x    C       158       45.818489   23.174581   12.935450   x
            x    C       159       43.130905   23.174948   12.959378   x
            x    C       160       59.266799   23.175183   12.960480   x
            x    C       161       37.744234   23.175176   12.964949   x
            x    C       162       53.879838   23.175042   12.960647   x
            x    C       163       26.992862   23.177272   12.965518   x
            x    C       164       35.056657   23.175453   12.946401   x
            x    C       165        2.759773   23.176071   12.945858   x
            x    C       166       29.681507   23.176434   12.944530   x
            x    C       167       61.954507   23.175319   12.945031   x
            x    C       168       10.839952   23.178105   12.964234   x
            x    C       169       18.911988   23.178817   12.940927   x
            x    C       170        5.448460   23.176896   12.967501   x
            x    C       171       21.601760   23.178331   12.962150   x
            x    C       172       13.529736   23.178675   12.941421   x
            x    C       173       55.223609   25.510273   12.956458   x
            x    C       174       31.018586   25.500177   12.966005   x
            x    C       175       39.087918   25.510045   12.959904   x
            x    C       176       63.292820   25.499008   12.969539   x
            x    C       177        6.793478   25.511654   12.963456   x
            x    C       178       25.647772   25.511974   12.961565   x
            x    C       179       33.718523   25.499165   12.968808   x
            x    C       180       41.787459   25.510050   12.957315   x
            x    C       181       57.923228   25.510089   12.957504   x
            x    C       182        1.422468   25.499942   12.968182   x
            x    C       183       22.946516   25.511224   12.962187   x
            x    C       184       14.869953   25.500436   12.968979   x
            x    C       185        9.494873   25.510968   12.965353   x
            x    C       186       17.571611   25.500454   12.969370   x
            x    C       187       18.917530   27.833771   12.967667   x
            x    C       188       26.986356   27.834032   12.941239   x
            x    C       189       35.062355   27.834418   12.965380   x
            x    C       190       59.260985   27.834237   12.940880   x
            x    C       191        2.766355   27.834226   12.962136   x
[...]
 C   111 -- C   142       -0.07      0.00      5.39534
 C   210 -- C   232       -0.07     -0.00      5.39534
 C   324 -- C   354       -0.07     -0.00      5.39535
 C    22 -- C    39       -0.07      0.00      5.39537
 C   311 -- C   325       -0.07      0.00      5.39537
 C   431 -- C   469       -0.07     -0.00      5.39538
 C   381 -- C   403       -0.07     -0.00      5.39539
 C   462 -- C   496       -0.07      0.00      5.39539
 C   409 -- C   435       -0.07      0.00      5.39540
 C    88 -- C   113       -0.07     -0.00      5.39540
 C   326 -- C   348       -0.07     -0.00      5.39541
 C   502 -- C   525       -0.07     -0.00      5.39541
 C   467 -- C   491       -0.07      0.00      5.39541
 C   443 -- C   465       -0.07     -0.00      5.39542
 C   310 -- C   327       -0.07      0.00      5.39544
 C   319 -- C   522       -0.07      0.00      5.39544
 C    34 -- C    68       -0.07     -0.00      5.39547
 C   464 -- C   497       -0.07      0.00      5.39547
 C    90 -- C   112       -0.07     -0.00      5.39548
 C   347 -- C   380       -0.07     -0.00      5.39549
 C   373 -- C   406       -0.07     -0.00      5.39551
 C    36 -- C    66       -0.07     -0.00      5.39551
 C   439 -- C   473       -0.07     -0.00      5.39552
 C   323 -- C   349       -0.07     -0.00      5.39553
 C   500 -- C   527       -0.07     -0.00      5.39553
 C   138 -- C   140       -0.07      0.00      5.39554
 C   441 -- C   471       -0.07     -0.00      5.39557
 C   470 -- C   492       -0.07      0.00      5.39558
 C   321 -- C   521       -0.07      0.00      5.39558
 C   490 -- C   523       -0.07     -0.00      5.39563
 C    93 -- C   115       -0.07     -0.00      5.39563
 C   353 -- C   375       -0.07     -0.00      5.39564
 C    85 -- C   118       -0.07     -0.00      5.39565
 C    69 -- C    84       -0.07     -0.00      5.39566
 C   345 -- C   379       -0.07     -0.00      5.39566
 C    38 -- C    60       -0.07     -0.00      5.39567
 C   498 -- C   520       -0.07     -0.00      5.39570
 C   350 -- C   374       -0.07     -0.00      5.39572
 C    67 -- C    89       -0.07     -0.00      5.39572
 C   407 -- C   433       -0.07      0.00      5.39574
 C   404 -- C   438       -0.07      0.00      5.39574
 C   242 -- C   243       -0.07      0.00      5.39579
 C    35 -- C    61       -0.07     -0.00      5.39581
 C   316 -- C   524       -0.07      0.00      5.39583
 C   312 -- C   519       -0.07      0.00      5.39594
 C   116 -- C   150       -0.07      0.00      5.39596
 C   119 -- C   145       -0.07      0.00      5.39599
 C    33 -- C   233       -0.07      0.00      5.39600
 C    59 -- C    92       -0.07      0.00      5.39600
 C    65 -- C    87       -0.07      0.00      5.39602
 C   313 -- C   516       -0.07      0.00      5.39604
 C    57 -- C    91       -0.07      0.00      5.39605
 C    62 -- C    86       -0.07      0.00      5.39608
 C   320 -- C   344       -0.07     -0.00      5.39610
 C   304 -- C   442       -0.07      0.00      5.39612
 C   317 -- C   351       -0.07     -0.00      5.39615
 C   303 -- C   444       -0.07      0.00      5.39615
 C   384 -- C   411       -0.07     -0.00      5.39621
 C    28 -- C   236       -0.07      0.00      5.39621
 C   314 -- C   352       -0.07     -0.00      5.39622
 C   383 -- C   410       -0.07     -0.00      5.39631
 C   382 -- C   412       -0.07     -0.00      5.39633
 C   315 -- C   346       -0.07     -0.00      5.39633
 C   385 -- C   408       -0.07     -0.00      5.39637
 C    13 -- C    14       -0.08     -0.00      5.39731
 C    40 -- C    41       -0.08     -0.00      5.39749
 C   292 -- C   299       -0.07     -0.00      5.39757
 C   293 -- C   298       -0.07     -0.00      5.39769
 C    96 -- C   123       -0.07     -0.00      5.39935
 C    94 -- C   124       -0.07     -0.00      5.39937
 C    27 -- C    58       -0.07     -0.00      5.39957
 C    26 -- C    64       -0.07     -0.00      5.39964
 C    14 -- C    83       -0.08      0.00      5.40116
 C    13 -- C    79       -0.08      0.00      5.40117
 C    41 -- C    83       -0.08      0.00      5.40127
 C    40 -- C    79       -0.08      0.00      5.40141
 C     2 -- C     3       -0.06      0.00      5.42603
 C     4 -- C    11       -0.06     -0.00      5.43172
 C     5 -- C    10       -0.06     -0.00      5.43177
=============================================================

(P)DSYGVX in subroutine dense_eigensolve returned info=    2
 ifail= 2*0
 iclustr= 623,  669
 gap= 1.E-5,  2.E-5
(P)DSYGVX in subroutine dense_eigensolve returned info=    2
 ifail= 2*0
 iclustr= 623,  669
 gap= 1.E-5,  2.E-5

============== Orbital energy and occupancy information for spin 1 =============

      Total number of orbitals:    2213
        Occupancy sum (kernel):    1068.812931472
   Occupancy sum (eigenvalues):    1068.812931472
                 HOMO-LUMO gap:       0.000071982 Eh
                 Mid-gap level:      -0.155515608 Eh

                        Orbital | Energy (Eh) | Occupancy
                            1    -1.954793231   1.0000000
                        .......   ...........   .........
                         1060    -0.173317951   0.9796354
                         1061    -0.173176840   0.9788945
                         1062    -0.172967302   0.9776668
                         1063    -0.172822130   0.9768302
                         1064    -0.171891544   0.9705148
                         1065    -0.171762116   0.9695166
                         1066    -0.168040146   0.9200538
                         1067    -0.168016490   0.9195225
                         1068    -0.155743451   0.2876289
                         1069    -0.155551599   0.2775611
                        ....... -- gap at 0K -- .........
                         1070    -0.155479617   0.2729623
                         1071    -0.155265668   0.2622978
                         1072    -0.154340840   0.2174044
                         1073    -0.154173163   0.2099711
                         1074    -0.150188951   0.0815289
                         1075    -0.150085965   0.0795656
                         1076    -0.149747425   0.0732934
                         1077    -0.149682931   0.0721540
                         1078    -0.148204761   0.0489560
                         1079    -0.147257144   0.0385044
                        .......   ...........   .........
                         2213     0.721148844   0.0000000

================================================================================

============== Orbital energy and occupancy information for spin 2 =============

      Total number of orbitals:    2213
        Occupancy sum (kernel):    1068.812931429
   Occupancy sum (eigenvalues):    1068.812931429
                 HOMO-LUMO gap:       0.000071982 Eh
                 Mid-gap level:      -0.155515608 Eh

                        Orbital | Energy (Eh) | Occupancy
                            1    -1.954793231   1.0000000
                        .......   ...........   .........
                         1060    -0.173317951   0.9796354
                         1061    -0.173176840   0.9788945
                         1062    -0.172967302   0.9776668
                         1063    -0.172822130   0.9768302
                         1064    -0.171891545   0.9705148
                         1065    -0.171762115   0.9695166
                         1066    -0.168040146   0.9200538
                         1067    -0.168016490   0.9195225
                         1068    -0.155743452   0.2876289
                         1069    -0.155551599   0.2775611
                        ....... -- gap at 0K -- .........
                         1070    -0.155479617   0.2729623
                         1071    -0.155265668   0.2622978
                         1072    -0.154340840   0.2174044
                         1073    -0.154173163   0.2099711
                         1074    -0.150188951   0.0815289
                         1075    -0.150085965   0.0795656
                         1076    -0.149747426   0.0732934
                         1077    -0.149682931   0.0721540
                         1078    -0.148204760   0.0489560
                         1079    -0.147257144   0.0385044
                        .......   ...........   .........
                         2213     0.721148844   0.0000000

================================================================================

===================== Writing canonical molecular orbitals =====================
    Spin 1
| Orbital  Energy (eV)  Norm     |
| HOMO-5   -4.67740692  1.000000 | 
| HOMO-4   -4.67388500  1.000000 | 
| HOMO-3   -4.57260504  1.000000 | 
| HOMO-2   -4.57196133  1.000000 | 
| HOMO-1   -4.23799496  1.000000 | 
| HOMO     -4.23277439  1.000000 | 
| LUMO     -4.23081566  1.000000 | 
| LUMO+1   -4.22499380  1.000000 | 
| LUMO+2   -4.19982795  1.000000 | 
| LUMO+3   -4.19526524  1.000000 | 
| LUMO+4   -4.08684932  1.000000 | 
| LUMO+5   -4.08404692  1.000000 | 
================================================================================

===================== Writing canonical molecular orbitals =====================
    Spin 2
| Orbital  Energy (eV)  Norm     |
| HOMO-5   -4.67740693  1.000000 | 
| HOMO-4   -4.67388498  1.000000 | 
| HOMO-3   -4.57260505  1.000000 | 
| HOMO-2   -4.57196134  1.000000 | 
| HOMO-1   -4.23799496  1.000000 | 
| HOMO     -4.23277440  1.000000 | 
| LUMO     -4.23081567  1.000000 | 
| LUMO+1   -4.22499381  1.000000 | 
| LUMO+2   -4.19982796  1.000000 | 
| LUMO+3   -4.19526525  1.000000 | 
| LUMO+4   -4.08684932  1.000000 | 
| LUMO+5   -4.08404692  1.000000 | 
================================================================================
 
=============== Density of States (DOS) calculation for UP spin ================
Writing "graphite_UP_DOS.txt" ... done
================================================================================
 
============== Density of States (DOS) calculation for DOWN spin ===============
Writing "graphite_DN_DOS.txt" ... done
================================================================================
 
Writing bands to file "graphite.val_bands" ... done

IS: Calculating electrolyte contribution to the atomic forces ...
================================================================================
 
***********************************************************
********** Summary of Forces (values in Eh/a) *************
*                                                         *
* ---------------------- Minimum ------------------------ *
* Atom:       520, |F|min =    0.00001366                 *
* Components:     Fx|min       Fy|min       Fz|min        *
*              -0.00000489  -0.00000894  -0.00000909      *
*                                                         *
* ---------------------- Maximum ------------------------ *
* Atom:        14, |F|max =    0.00050121                 *
* Components:     Fx|max       Fy|max       Fz|max        *
*              -0.00010532   0.00041662   0.00025797      *
*                                                         *
* ---------------- Root Mean Square Force --------------- *
*                  |F|rms =    0.00014903                 *
* Components:     Fx|rms       Fy|rms       Fz|rms        *
*               0.00009637   0.00009578   0.00006121      *
***********************************************************
 

                                                      hartree           kcal/mol
IS: NB: Energy of pure electrolyte:         -0.08064626341318         -50.606293

------------------------------ TIMING INFORMATION ------------------------------
AVERAGE TIME:    4991.687s on    128 proc(s)                                    
TOTAL TIME:      4991.691s on    128 proc(s)                                    
================= AVERAGE TIMINGS FROM ALL PROCS (CUMULATIVE) ==================
|| TAG                                    #calls    cpu time   %total  Gflops ||
|| linalg_invert_sym_matrix             :     4        0.02s   0.000%  ------ || (1 procs only)
|| density_fftbox_interp_mult_imbal     :  5760        0.00s   0.000%  ------ ||
|| sparse_set_to_garbage                :    52        0.00s   0.000%  ------ ||
|| vdwcorrection_calculate_forces       :     5        0.02s   0.000%  ------ ||
|| ewald_calculate_forces_realspace     :     5        0.02s   0.000%  ------ ||
|| vdwcorrection_calculate_energy       :     5        0.03s   0.001%  ------ ||
|| onetep.F90 main loop imbalance       :     1        0.04s   0.001%  ------ ||
|| onetep.F90 final imbalance           :     1        0.04s   0.001%  ------ ||
|| basis_extract_function_from_box      :   570        0.05s   0.001%  ------ ||
|| sparse_spam3toblacs_real_fast_imbal  :   514        0.07s   0.001%  ------ ||
|| pseudopotentials_core_density        :     5        0.10s   0.002%  ------ ||
|| pseudopotentials_local_on_grid       :     5        0.10s   0.002%  ------ ||
|| parallel_prepare_fd_halos_alloc      : 24957        0.14s   0.003%  ------ ||
|| sparse_blacstospam3_real_fast_imbal  :   504        0.17s   0.003%  ------ ||
|| pseudopotentials_nonlocal_mat        :     9        0.20s   0.004%  ------ ||
|| restart_hamiltonian_read             :     5        0.20s   0.004%  ------ ||
|| parallel_prepare_fd_halos_request    : 24957        0.23s   0.005%  ------ ||
|| restart_hamiltonian_write            :     7        0.36s   0.007%  ------ ||
|| sparse_spam3toblacs_real_fast_B2     : 65792        0.41s   0.008%  ------ ||
|| pseudo_make_structure_factor         :     5        0.72s   0.014%  ------ ||
|| parallel_prepare_fd_halos_satisfy    : 24957        1.14s   0.023%  ------ ||
|| ngwf_gradient_coeffs                 :     7        1.33s   0.027%  ------ ||
|| smeared_ion_generate_potential_PBC   :     5        1.34s   0.027%  ------ ||
|| sparse_init                          :     5        1.70s   0.034%  ------ ||
|| restart_kernel_write                 :    12        1.74s   0.035%  ------ ||
|| pseudo_local_calculate_forces        :     5        2.49s   0.050%  ------ ||
|| energy_and_force_init_cell           :     1        2.56s   0.051%  ------ ||
|| projectors_func_ovlp_box_spam3       :     9        2.64s   0.053%  ------ ||
|| sparse_embed_hotelling_invert_embed  :     9        2.99s   0.060%  ------ ||
|| ewald_calculate_energy               :     5        3.02s   0.061%  ------ ||
|| integrals_grad_spam3                 :     5        3.09s   0.062%  ------ ||
|| nonsc_forces_ngwfs_calc              :     5        3.10s   0.062%  ------ ||
|| density_init_guess_real              :     5        3.27s   0.066%  ------ ||
|| fourier_filter_cell                  :   128        3.50s   0.070% 203.855 ||
|| sparse_trace                         :  1978        3.80s   0.076%  ------ ||
|| pseudo_nlcc_calculate_forces         :     5        3.88s   0.078%  ------ ||
|| eigenstates_calculate                :     1        4.39s   0.088%  ------ ||
|| projectors_func_grad_ovlp_box_spam3  :    15        4.64s   0.093%  ------ ||
|| function_ops_brappd_ketppd_spam3     :    13        4.98s   0.100%  ------ ||
|| projectors_init_fftbox_recip         :    52        5.04s   0.101%  ------ ||
|| pseudo_nl_calculate_forces           :     5        5.28s   0.106%  ------ ||
|| fourier_apply_box_pair               :   606        5.67s   0.114%  1.728k ||
|| basis_copy_function_to_box           :  7693        6.77s   0.136%  ------ ||
|| restart_ngwfs_tightbox_input         :     5        7.31s   0.146%  ------ ||
|| boltzmann_init_steric_pot            :     5        8.85s   0.177%  ------ ||
|| integrals_kinetic_spam3              :     9        8.97s   0.180%  ------ ||
|| ewald_calculate_forces_recipspace    :     5        9.47s   0.190%  ------ ||
|| ewald_calculate_forces               :     5        9.53s   0.191%  ------ ||
|| parallel_prepare_fd_halos_comms_imbal: 24957        9.71s   0.194%  ------ ||
|| parallel_prepare_fd_halos_clear      : 24957       10.03s   0.201%  ------ ||
|| fourier_interpolate_cell             :   288       14.55s   0.292% 110.255 ||
|| sparse_product                       :  1277       16.68s   0.334%  ------ ||
|| parallel_prepare_fd_halos_comms_wait : 24957       16.87s   0.338%  ------ ||
|| sparse_spam3toblacs_real_fast_B1     : 65792       19.04s   0.381%  ------ ||
|| fourier_apply_cell_backward          :  1237       20.11s   0.403% 172.948 ||
|| sparse_spam3toblacs_real_fast        :   514       20.37s   0.408%  ------ ||
|| projectors_gradient_batch            :    28       20.44s   0.409%  ------ ||
|| basis_dot_function_with_box          : 1.382M      25.49s   0.511%  ------ ||
|| properties_calculate                 :     1       28.35s   0.568%  ------ ||
|| cell_grid_extract_box_real           :  2560       29.71s   0.595%  ------ ||
|| sparse_blacstospam3_real_fast        :   504       34.58s   0.693%  ------ ||
|| parallel_prepare_fd_halos            : 24957       38.25s   0.766%  ------ ||
|| restart_ngwfs_tightbox_output        :     5       40.10s   0.803%  ------ ||
|| xc_energy_potential                  :   149       44.49s   0.891%  ------ ||
|| cell_grid_deposit_box_real           :  6290       61.92s   1.240%  ------ ||
|| dense_eigensolve                     :   250       74.68s   1.496%  ------ ||
|| basis_add_function_to_box            : 3.955M      76.91s   1.541%  ------ ||
|| fourier_apply_cell_forward           :  1217       77.43s   1.551%  44.200 ||
|| ngwf_gradient_build_batch            :    28       86.41s   1.731%  ------ ||
|| edft_diag_ngwf_ham                   :   248       93.59s   1.875%  ------ ||
|| finite_difference_derivative         : 24957      114.83s   2.300%  ------ ||
|| integrals_locpot_mat_els_batch       :   228      126.03s   2.525%  ------ ||
|| ngwf_gradient_batch                  :    28      141.74s   2.840%  ------ ||
|| edft_apply_smearing_operator         :   124      142.92s   2.863%  ------ ||
|| ngwf_gradient_lnv                    :     7      147.37s   2.952%  ------ ||
|| hamiltonian_energy_components        :     5      167.29s   3.351%  ------ ||
|| density_batch_row_sums               :   576      203.01s   4.067%  ------ ||
|| implicit_solvent_boltzmann_forces    :     5      239.10s   4.790%  ------ ||
|| density_fftbox_deposit_to_cell       :  5760      246.78s   4.944%  ------ ||
|| potential_apply_to_ngwf_batch        :   228      407.45s   8.163%  ------ ||
|| smeared_ion_force_correction         :    10      472.56s   9.467%  ------ ||
|| dl_mg_solver_calls                   :   144      489.23s   9.801%  ------ ||
|| implicit_solvent_soft_sphere_forces  :     5      498.02s   9.977%  ------ ||
|| multigrid_calculate_hartree          :   144      504.64s  10.110%  ------ ||
|| integrals_locpot_dbl_grid            :   114      534.24s  10.703%  ------ ||
|| fourier_apply_box                    : 16114      568.03s  11.379%  2.194k ||
|| density_fftbox_interpolate_multiply  :  5760      659.64s  13.215%  ------ ||
|| density_batch_interp_deposit         :   576     1171.34s  23.466%  ------ ||
|| forces_calculate                     :     5     1283.98s  25.722%  ------ ||
|| density_on_dbl_grid                  :   288     1419.91s  28.446%  ------ ||
|| hamiltonian_lhxc_calculate           :   134     1933.58s  38.736%  ------ ||
|| edft_calculate                       :     7     2429.86s  48.678%  ------ ||
|| ngwf_cg_optimise                     :     5     2832.22s  56.739%  ------ ||
|| energy_and_forces                    :     5     4962.14s  99.408%  ------ ||
|| total_time                           :     1     4991.69s 100.000%  ------ ||
================================================================================
Overhead of generating timer report: 
- 0 ms averaging over threads,
- 12 ms ensuring consistency across MPI ranks,
- 44 ms printing in order.

Job completed: 01-11-2023 00:11 (+0000)

