1151      
Geometry optimisation iteration:    44 | Lattice="34.1692 0.0000 0.0000  0.0000 39.4552 0.0000  0.0000 0.0000 100.0000"
C    22.106888    1.163939    3.366525
C    26.378159    1.163948    3.354604
C    30.649769    1.163972    3.352110
C     6.447578    1.163858    3.353199
C    10.718571    1.163858    3.359091
C     2.176327    1.163944    3.353366
C    14.989150    1.163922    3.371299
C    19.259963    1.163913    3.373485
C    23.530899    1.163909    3.361500
C    27.802300    1.163943    3.352281
C    32.073992    1.163963    3.352201
C     0.752264    1.163928    3.353765
C     5.023628    1.163895    3.353576
C     9.294765    1.163866    3.356584
C    13.565401    1.163928    3.367898
C    17.836167    1.163972    3.375050
C    15.700710    2.397036    3.367718
C    19.971474    2.397033    3.366295
C    24.242408    2.397091    3.352695
C     4.312025    2.397208    3.346456
C    28.513892    2.397210    3.345661
C     0.040646    2.397254    3.346620
C     8.583178    2.397149    3.348568
C    12.853884    2.397103    3.359579
C    17.124620    2.397059    3.368928
C    21.395407    2.397122    3.361735
C    25.666578    2.397182    3.348638
C    29.938114    2.397257    3.345115
C    32.785681    2.397228    3.346669
C     2.887995    2.397230    3.347230
C     7.159181    2.397147    3.347591
C    11.430082    2.397117    3.355655
C    13.565372    3.630238    3.365735
C    17.836194    3.630110    3.373374
C     2.176317    3.630650    3.340938
C    22.106985    3.630232    3.361052
C    26.378164    3.630449    3.344688
C     6.447525    3.630491    3.343570
C    10.718514    3.630380    3.354445
C    14.989101    3.630213    3.369781
C    19.259951    3.630209    3.370928
C    23.530880    3.630343    3.354365
C    27.802245    3.630598    3.341433
C    30.649794    3.630593    3.340154
C     0.752286    3.630624    3.341143
C     5.023641    3.630513    3.342680
C    32.073954    3.630630    3.339838
C     9.294761    3.630385    3.350241
C     0.040476    4.863694    3.335275
C    11.430019    4.863217    3.367329
C    15.700756    4.862949    3.384711
C    19.971623    4.863037    3.381089
C    24.242618    4.863216    3.357306
C     4.311849    4.863652    3.339380
C     8.582930    4.863328    3.352722
C    12.853691    4.863148    3.374086
C    17.124442    4.862899    3.386159
C    21.395461    4.863092    3.374042
C    25.666584    4.863401    3.348958
C    28.514012    4.863607    3.339034
C    29.938075    4.863718    3.336167
C    32.785681    4.863627    3.335468
C     2.887954    4.863687    3.337877
C     7.159172    4.863417    3.347508
C     9.294371    6.095983    3.368792
C    13.565185    6.095656    3.395677
C    17.836065    6.095544    3.405255
C    22.107220    6.095721    3.385892
C    32.073912    6.096552    3.331883
C     2.176124    6.096585    3.334426
C     6.447330    6.096279    3.350062
C    10.718116    6.095906    3.378295
C    14.988949    6.095665    3.401218
C    19.259902    6.095627    3.401532
C    23.531146    6.095923    3.374221
C    26.378319    6.096188    3.352033
C    27.802318    6.096478    3.343051
C    30.649876    6.096512    3.334073
C     0.752145    6.096546    3.332959
C     5.023460    6.096404    3.343575
C     7.158762    7.328823    3.366504
C    11.429494    7.328234    3.402996
C    15.700469    7.328028    3.424363
C    19.971654    7.328074    3.419288
C    29.938114    7.329358    3.336995
C     0.040314    7.329390    3.330677
C     4.311605    7.329235    3.344677
C     8.582435    7.328616    3.378928
C    12.853265    7.328249    3.412016
C    17.124242    7.328144    3.425602
C    21.395554    7.328255    3.409959
C    25.666750    7.328851    3.368969
C    24.242917    7.328435    3.384163
C    28.514105    7.329171    3.345036
C    32.785580    7.329347    3.330992
C     2.887707    7.329336    3.338091
C     5.023025    8.562018    3.359652
C     9.293701    8.561191    3.404435
C    13.564680    8.560879    3.435582
C    17.835930    8.560902    3.443501
C    27.802498    8.562086    3.359691
C    32.073869    8.562374    3.333211
C     2.175836    8.562319    3.338585
C     6.446785    8.561794    3.373767
C    10.717505    8.561069    3.416950
C    23.531408    8.561328    3.408969
C    14.988593    8.560960    3.440532
C    19.259889    8.560992    3.439754
C    22.107367    8.561071    3.423410
C    26.378498    8.561684    3.375867
C    30.649852    8.562247    3.338729
C     0.751916    8.562315    3.333947
C     7.157943    9.794658    3.398671
C    11.428812    9.793935    3.439844
C    15.700075    9.793976    3.455104
C    25.667095    9.794800    3.399622
C    29.938234    9.795415    3.350423
C     0.040222    9.795555    3.336469
C     4.311153    9.795206    3.364321
C    21.395768    9.794215    3.442526
C     8.581811    9.794369    3.414745
C    12.852778    9.793979    3.447134
C    17.124170    9.794145    3.455408
C    19.971668    9.794052    3.450361
C    24.243076    9.794410    3.417583
C    28.514174    9.795107    3.364583
C    32.785427    9.795506    3.336897
C     2.887271    9.795339    3.351151
C     5.022302   11.028144    3.387463
C     9.293104   11.027302    3.437251
C    13.564119   11.027103    3.457908
C    23.531494   11.027706    3.435656
C    27.802773   11.028189    3.386124
C    19.259923   11.027502    3.456633
C    32.073800   11.028671    3.345946
C     2.175561   11.028478    3.355186
C     6.446143   11.027886    3.405719
C    10.717055   11.027191    3.447389
C    14.988254   11.027319    3.459082
C    17.835688   11.027325    3.458519
C    22.107362   11.027388    3.446565
C    26.378745   11.027825    3.405012
C    30.649790   11.028449    3.355260
C     0.751661   11.028599    3.346529
C    32.785321   12.261617    3.353787
C     2.886803   12.261376    3.375096
C     7.157413   12.260783    3.428604
C    21.395558   12.260847    3.448660
C    11.428504   12.260322    3.455884
C    17.123819   12.260831    3.451559
C    25.667165   12.261065    3.423367
C    29.938239   12.261473    3.373538
C     0.039900   12.261645    3.353490
C     4.310479   12.261216    3.392519
C     8.581310   12.260578    3.441609
C    12.852414   12.260445    3.457050
C    15.699764   12.260596    3.453661
C    19.971506   12.260769    3.451034
C    24.243127   12.260836    3.436112
C    28.514499   12.261137    3.390542
C    30.649906   13.494186    3.378647
C     0.751364   13.494355    3.368515
C    19.259509   13.493873    3.434581
C     5.021732   13.493964    3.415435
C     9.292780   13.493470    3.450453
C    23.531237   13.493891    3.437770
C    27.802879   13.494037    3.409753
C    32.073653   13.494442    3.367470
C     2.175050   13.494245    3.380102
C     6.445619   13.493840    3.431162
C    10.716760   13.493516    3.452231
C    13.563936   13.493513    3.445801
C    17.835404   13.493787    3.433085
C    22.107207   13.493744    3.439196
C    14.987930   13.493729    3.439883
C    26.378919   13.493788    3.423920
C    17.123510   14.726709    3.405440
C    28.514577   14.726691    3.411435
C    32.785203   14.726977    3.375990
C     2.886273   14.726850    3.400610
C     7.156990   14.726456    3.443336
C    21.395218   14.726705    3.419880
C    25.667105   14.726734    3.429795
C    29.938370   14.726904    3.396573
C     0.039650   14.726996    3.376302
C     4.309991   14.726694    3.417146
C     8.580981   14.726413    3.447750
C    11.428295   14.726377    3.439830
C    12.852240   14.726555    3.430551
C    15.699454   14.726478    3.410767
C    19.971089   14.726649    3.411980
C    24.242995   14.726648    3.431084
C    26.378954   15.959535    3.427917
C    30.650140   15.959608    3.398727
C     0.751067   15.959751    3.390073
C     5.021408   15.959535    3.432855
C    14.987612   15.959332    3.384759
C    19.259197   15.959436    3.377806
C    23.531164   15.959603    3.417414
C    27.802892   15.959625    3.422373
C    32.073668   15.959750    3.388073
C     2.174564   15.959632    3.402126
C     6.445252   15.959457    3.442090
C     9.292542   15.959318    3.441453
C    10.716490   15.959439    3.430297
C    13.563725   15.959223    3.399166
C    17.835109   15.959167    3.371957
C    22.107076   15.959498    3.404274
C    24.242976   17.192592    3.413512
C    28.514652   17.192585    3.421350
C    32.785190   17.192730    3.392120
C     2.885926   17.192706    3.417236
C    12.851880   17.192417    3.382976
C    17.123308   17.192100    3.341207
C    21.395264   17.192465    3.374873
C    25.667159   17.192709    3.423998
C    29.938636   17.192714    3.410399
C     0.039580   17.192805    3.392907
C     4.309702   17.192655    3.430931
C     8.580807   17.192598    3.439261
C     7.156769   17.192568    3.444616
C    11.427926   17.192417    3.404907
C    15.699130   17.192060    3.348040
C    19.971057   17.192281    3.355858
C    22.107046   18.425699    3.372003
C    26.378907   18.425843    3.424729
C    30.650256   18.425780    3.407266
C     0.750844   18.425909    3.400536
C    10.716360   18.425762    3.402942
C    14.987354   18.425378    3.331491
C    19.259325   18.425423    3.328234
C    23.531260   18.425765    3.396407
C    27.803138   18.425849    3.425223
C     6.445150   18.425801    3.443775
C    32.073929   18.425875    3.397427
C     2.174442   18.425862    3.412678
C     5.021099   18.425791    3.439531
C     9.292338   18.425620    3.426315
C    13.563168   18.425485    3.349965
C    17.835112   18.425181    3.318533
C    24.243030   19.658925    3.403269
C    28.514933   19.658886    3.422157
C    32.785291   19.658927    3.394229
C     8.580776   19.658986    3.431542
C    12.851560   19.658803    3.348139
C    17.123210   19.658552    3.305942
C    21.395338   19.658848    3.351717
C     4.309471   19.658949    3.434321
C    25.667228   19.658971    3.419134
C    29.938737   19.658943    3.412143
C     0.039485   19.659010    3.395488
C     2.885791   19.659017    3.421101
C     7.156652   19.658917    3.442639
C    11.427803   19.658804    3.378613
C    15.698935   19.658523    3.310616
C    19.971175   19.658594    3.327568
C    10.000614    4.858402    6.645292
C     7.153756    4.859579    6.634619
C     7.865080    6.090725    6.645604
C     9.287581    6.089186    6.653229
C    27.099181   14.719978    6.716245
C    24.256043   14.716168    6.720690
C    24.968165   15.951243    6.714118
C    26.390820   15.952431    6.720105
C     7.866031    3.628011    6.633965
C     9.289164    3.627423    6.635984
C    11.422193    7.318306    6.688691
C     9.998970    7.319969    6.677589
C     7.152017    7.321814    6.652500
C     7.862489    8.553136    6.677050
C     9.285621    8.550716    6.692847
C    24.964577   13.483949    6.728910
C    26.387078   13.486433    6.716798
C    28.523832   17.187212    6.716066
C    27.101703   17.187099    6.721003
C    24.261668   17.183511    6.696456
C    24.972052   18.419851    6.701033
C    26.393741   18.421045    6.717447
C     7.866191    1.163463    6.638858
C     9.289520    1.163439    6.639528
C    12.136726    1.163425    6.646028
C     5.018725    1.163141    6.638072
C    33.493941    1.162829    6.639593
C     3.595132    1.162832    6.639259
C    16.408993    1.163591    6.654625
C     0.748218    1.162568    6.639246
C    13.560348    1.163658    6.648901
C    17.832830    1.163688    6.654318
C    20.681093    1.163508    6.650883
C    29.223898    1.163333    6.637920
C    30.647385    1.163116    6.637796
C    24.952461    1.163481    6.641001
C    22.104901    1.163648    6.646876
C    26.376483    1.163528    6.638516
C    10.001406    2.395472    6.637301
C     7.154080    2.395572    6.633608
C     5.730713    2.395537    6.634146
C    14.272776    2.395061    6.647331
C     2.883317    2.395489    6.634312
C    11.424592    2.394957    6.639579
C    31.358778    2.395540    6.634136
C     1.459898    2.395290    6.635211
C    18.545584    2.395042    6.650217
C    32.782131    2.395214    6.634198
C    15.696471    2.394903    6.649123
C    22.817097    2.395537    6.640993
C    27.088502    2.395546    6.633848
C    19.969102    2.394844    6.647363
C    28.511851    2.395664    6.632823
C    24.240371    2.395628    6.637164
C    12.136760    3.626799    6.644884
C    33.493893    3.628168    6.630370
C     3.595125    3.628341    6.631049
C    16.409453    3.626663    6.655251
C    20.681801    3.626774    6.649675
C    30.647061    3.628297    6.629036
C     0.748140    3.628198    6.630069
C     5.018540    3.628056    6.630777
C    13.560097    3.626575    6.648716
C    17.832835    3.626565    6.654728
C    29.223908    3.628289    6.629676
C    24.952945    3.627844    6.635648
C    22.105047    3.627323    6.644350
C    26.376453    3.627838    6.631986
C    27.088938    4.859716    6.631688
C    31.359037    4.860540    6.626133
C     1.459839    4.860905    6.627212
C    14.272654    4.857017    6.663551
C    18.545496    4.856829    6.667592
C    22.817634    4.858179    6.650212
C    28.512512    4.860230    6.628003
C    32.782511    4.860777    6.625629
C     2.883383    4.860637    6.627629
C    11.423699    4.857438    6.650834
C    15.696361    4.857073    6.666758
C    19.969285    4.857076    6.663019
C    24.241335    4.859049    6.642331
C     5.730565    4.860187    6.632013
C    24.954561    6.090539    6.648448
C    29.224850    6.092550    6.627580
C    33.494386    6.093229    6.623692
C    16.409233    6.087364    6.688900
C    20.682524    6.087885    6.679028
C    26.377566    6.091398    6.638732
C    30.647900    6.092897    6.624366
C     0.748146    6.093383    6.623923
C    17.832801    6.086757    6.688331
C    22.106080    6.088767    6.669138
C     3.594888    6.092946    6.628933
C    12.135784    6.087933    6.671631
C    13.559406    6.087382    6.678930
C     5.018164    6.092119    6.632347
C    24.243464    7.321970    6.669005
C    22.819781    7.320705    6.684179
C    27.090582    7.323931    6.643195
C    31.360199    7.325612    6.624359
C    18.546696    7.317588    6.711801
C    28.513845    7.324840    6.633452
C    32.783296    7.325629    6.622463
C    15.695789    7.317281    6.711553
C    19.970443    7.318095    6.705578
C     1.459756    7.325759    6.625316
C    14.272084    7.318171    6.706936
C     2.882526    7.325201    6.628469
C     5.729310    7.323710    6.642978
C    24.956743    8.554364    6.680002
C    29.226054    8.557698    6.636647
C    22.109253    8.550697    6.712986
C    26.380369    8.555961    6.661829
C    20.684991    8.548732    6.724877
C    33.494871    8.558108    6.624442
C    16.408794    8.546596    6.735908
C    30.649318    8.558058    6.628888
C    17.834277    8.546192    6.734689
C     3.593666    8.556958    6.637585
C     0.748444    8.557902    6.625483
C    13.557440    8.547715    6.727772
C    12.133609    8.548461    6.719995
C     5.016362    8.555313    6.647330
C    27.093370    9.789147    6.668826
C    24.246804    9.786173    6.708242
C    22.822888    9.783349    6.726293
C    28.515989    9.790387    6.651683
C    18.551067    9.774566    6.748180
C    31.360840    9.791114    6.632314
C    19.974530    9.778252    6.744150
C    32.783557    9.790810    6.628085
C    15.692852    9.773941    6.751030
C     1.459520    9.790156    6.632844
C    14.268852    9.778736    6.749727
C     2.881988    9.789376    6.640225
C     5.726472    9.787679    6.669142
C     9.996235    9.781705    6.725394
C    11.419391    9.779788    6.738875
C     7.149111    9.785427    6.687493
C    24.960397   11.019229    6.715476
C    26.383672   11.021557    6.693960
C    29.227772   11.023415    6.656968
C    22.113050   11.013895    6.743708
C    16.406773   11.006220    6.744267
C    20.689015   11.011508    6.750393
C    33.495024   11.023708    6.634238
C    17.838484   11.005957    6.738584
C    30.650107   11.023688    6.643736
C     0.748422   11.022819    6.636307
C     3.592406   11.021436    6.657761
C    12.131154   11.010635    6.760241
C    13.554786   11.009967    6.759825
C     7.859149   11.016852    6.718198
C     5.014059   11.020031    6.674971
C     9.281786   11.012640    6.736839
C    27.096113   12.254571    6.698436
C    24.251258   12.250554    6.733103
C    22.827527   12.246252    6.743549
C    31.361069   12.256581    6.649335
C    19.980405   12.240675    6.738912
C    28.518507   12.255662    6.678050
C    14.264571   12.243132    6.751847
C    18.552617   12.242474    6.717056
C     1.459149   12.255334    6.649425
C    15.693468   12.241654    6.723988
C    32.783716   12.256485    6.642347
C     5.723665   12.252532    6.702148
C     9.992173   12.244445    6.752207
C     2.880994   12.254133    6.661599
C    11.416322   12.242072    6.758725
C     7.146223   12.249670    6.724030
C    29.229799   13.488123    6.682501
C    16.407733   13.477091    6.677998
C    20.692955   13.476733    6.709445
C    33.495094   13.488837    6.651381
C     3.590766   13.486727    6.683935
C    13.556581   13.478653    6.728198
C    17.836701   13.477823    6.673992
C    22.119668   13.477931    6.728294
C    30.650828   13.488765    6.665761
C     0.747742   13.487922    6.654572
C    12.128907   13.478240    6.734844
C     7.855651   13.482437    6.741630
C     5.012054   13.485308    6.704383
C     9.277722   13.477896    6.746604
C     9.989656   14.711332    6.722141
C    14.266970   14.716782    6.655782
C    18.549579   14.716756    6.653532
C    31.362195   14.721467    6.670836
C     1.458258   14.720856    6.670695
C     5.721181   14.718359    6.723705
C    11.415238   14.714888    6.676637
C    15.693941   14.715864    6.661886
C    19.977823   14.711906    6.650441
C    28.521077   14.720627    6.702024
C    32.784188   14.721711    6.661713
C     2.879660   14.719706    6.685767
C     7.142365   14.715593    6.735053
C    22.834873   14.711778    6.709557
C     7.851017   15.948554    6.728190
C    12.131493   15.950616    6.667045
C    16.410696   15.949961    6.615604
C    33.495330   15.954536    6.670142
C     3.588883   15.953236    6.705946
C     9.271308   15.945609    6.710477
C    13.553414   15.950999    6.653297
C    17.836732   15.948461    6.582077
C     0.747237   15.953975    6.674143
C     5.009096   15.952136    6.721710
C    20.692592   15.945435    6.626817
C    29.232015   15.953446    6.703473
C    30.653090   15.954034    6.687297
C    22.121997   15.943625    6.662430
C     7.137729   17.183934    6.726671
C     5.716915   17.186336    6.731463
C     9.985395   17.177627    6.660457
C    14.268495   17.183352    6.618119
C     1.457180   17.187702    6.688359
C    11.413386   17.180878    6.652015
C    15.694832   17.183458    6.566032
C    32.785449   17.187845    6.678120
C     2.877821   17.186902    6.704352
C    18.547783   17.184713    6.543767
C    31.364140   17.187542    6.688215
C    19.977147   17.184776    6.568905
C    22.837870   17.182763    6.665062
C     7.844959   18.417339    6.726032
C    12.125724   18.417303    6.619525
C     5.006344   18.420765    6.732879
C     9.267971   18.415489    6.702124
C     3.586460   18.421639    6.719794
C    16.407526   18.416676    6.566930
C    33.495621   18.421827    6.681299
C    13.553566   18.417078    6.590639
C     0.747027   18.421652    6.686127
C    20.691114   18.417246    6.579484
C    17.836776   18.416012    6.523072
C    30.655357   18.421390    6.699555
C    29.234441   18.420980    6.714274
C    22.120156   18.418873    6.636147
C     9.983759   19.651589    6.708565
C     7.133370   19.653780    6.739113
C     5.714034   19.655086    6.742052
C    11.410926   19.652973    6.647328
C     1.456489   19.655703    6.694398
C    14.266182   19.655228    6.589527
C     2.876330   19.655813    6.712295
C    15.697065   19.653412    6.582380
C    32.786240   19.655578    6.682566
C    18.550609   19.653782    6.562876
C    31.365205   19.655473    6.693195
C    19.977916   19.655917    6.583907
C    22.836872   19.656283    6.646950
C    27.104178   19.654775    6.721966
C    28.525931   19.655317    6.720264
C    24.263523   19.651622    6.686131
C    22.107079   20.891877    3.365202
C    26.379067   20.891858    3.423500
C    30.650336   20.891922    3.402883
C     6.444974   20.891967    3.443421
C    10.716307   20.892080    3.392004
C     2.174340   20.892044    3.409796
C    14.987022   20.891992    3.310478
C    19.259335   20.891885    3.316141
C    23.531087   20.891944    3.392219
C    27.803171   20.891968    3.423343
C    32.073912   20.891922    3.392253
C     0.750854   20.891993    3.396174
C     5.021004   20.892010    3.439175
C     9.292495   20.891985    3.420819
C    13.562916   20.892042    3.329301
C    17.835219   20.891914    3.303541
C    15.698784   22.125200    3.305025
C    19.971109   22.124774    3.331519
C    24.242903   22.124635    3.407653
C     4.309445   22.124829    3.430291
C    28.514917   22.124751    3.417094
C     0.039542   22.124718    3.384357
C     8.580830   22.124735    3.433943
C    12.851503   22.125032    3.345756
C    17.123204   22.125034    3.303341
C    21.395190   22.124762    3.357024
C    25.667258   22.124592    3.421484
C    29.938844   22.124689    3.403761
C    32.785279   22.124690    3.382616
C     2.885706   22.124786    3.414082
C     7.156586   22.124703    3.443818
C    11.427824   22.124836    3.378763
C    13.563091   23.358098    3.341010
C    17.835197   23.358110    3.314741
C     2.174382   23.357567    3.397643
C    22.106914   23.357578    3.380621
C    26.379078   23.357546    3.425226
C     6.444960   23.357577    3.444557
C    10.716524   23.357589    3.406194
C    14.987088   23.358237    3.318697
C    19.259271   23.357848    3.331156
C    23.531023   23.357504    3.404535
C    27.803171   23.357562    3.418889
C    30.650325   23.357573    3.389322
C     0.750909   23.357508    3.381466
C     5.021010   23.357602    3.435274
C    32.073851   23.357509    3.376814
C     9.292539   23.357546    3.431601
C     0.039654   24.590503    3.367279
C    11.428202   24.590833    3.406550
C    15.699020   24.591502    3.327355
C    19.971106   24.590872    3.357772
C    24.242974   24.590494    3.420598
C     4.309637   24.590704    3.422971
C     8.580871   24.590561    3.447523
C    12.851863   24.591016    3.374099
C    17.123221   24.591335    3.325760
C    21.395080   24.590634    3.381787
C    25.667102   24.590528    3.426269
C    28.514819   24.590617    3.408032
C    29.938586   24.590568    3.389895
C    32.785294   24.590501    3.365169
C     2.886020   24.590621    3.401808
C     7.156762   24.590650    3.449578
C     9.292552   25.823914    3.452888
C    13.563450   25.824454    3.380620
C    17.834946   25.824514    3.351853
C    22.106780   25.823823    3.407915
C    32.073978   25.823641    3.360231
C     2.174791   25.823767    3.383956
C     6.445287   25.823897    3.447162
C    10.716769   25.823828    3.437245
C    14.987476   25.824551    3.357066
C    19.259294   25.824101    3.367518
C    23.531232   25.823759    3.422329
C    26.378826   25.823833    3.424586
C    27.803092   25.823689    3.411343
C    30.650107   25.823803    3.373841
C     0.751118   25.823684    3.365867
C     5.021247   25.823831    3.430673
C     7.156896   27.057159    3.455041
C    11.428360   27.057306    3.442470
C    15.699363   27.057656    3.378334
C    19.971008   27.057162    3.400314
C    29.938440   27.056826    3.376948
C     0.039807   27.056765    3.354291
C     4.310008   27.057018    3.415763
C     8.581013   27.057138    3.462097
C    12.852241   27.057184    3.418440
C    17.123344   27.057433    3.376061
C    21.395062   27.056971    3.415808
C    25.667101   27.056878    3.428215
C    24.243019   27.057078    3.432263
C    28.514625   27.056986    3.397761
C    32.785375   27.056790    3.351884
C     2.886319   27.056919    3.390914
C     5.021736   28.290142    3.425330
C     9.292774   28.290478    3.466681
C    13.563927   28.290465    3.429186
C    17.835199   28.290320    3.409216
C    27.802766   28.289942    3.404051
C    32.073733   28.289767    3.351132
C     2.175017   28.289953    3.375018
C     6.445474   28.290275    3.446366
C    10.716751   28.290349    3.461627
C    23.531210   28.290030    3.438197
C    14.987799   28.290370    3.414091
C    19.259267   28.290084    3.418300
C    22.107111   28.290149    3.436232
C    26.378917   28.290064    3.422398
C    30.650017   28.289894    3.363929
C     0.751400   28.289817    3.357189
C     7.157202   29.523196    3.452234
C    11.428521   29.523501    3.463215
C    15.699636   29.523263    3.436196
C    25.667191   29.522904    3.429072
C    29.938271   29.522592    3.370639
C     0.039920   29.522544    3.350631
C     4.310360   29.522845    3.408873
C    21.395396   29.522989    3.446856
C     8.581206   29.523273    3.463917
C    12.852367   29.523238    3.453247
C    17.123690   29.523047    3.434610
C    19.971245   29.523078    3.443766
C    24.243140   29.523051    3.441049
C    28.514459   29.522863    3.391260
C    32.785376   29.522606    3.348322
C     2.886679   29.522697    3.384409
C     5.022033   30.755651    3.417327
C     9.293029   30.756220    3.463236
C    13.564164   30.756174    3.459258
C    23.531420   30.755707    3.447550
C    27.802784   30.755439    3.399918
C    19.259750   30.755856    3.457051
C    32.073722   30.755125    3.351784
C     2.175375   30.755300    3.372174
C     6.445901   30.755771    3.437844
C    10.717002   30.756189    3.465710
C    14.988127   30.755913    3.455533
C    17.835632   30.755977    3.455597
C    22.107322   30.755975    3.454768
C    26.378855   30.755800    3.420300
C    30.649840   30.755360    3.362633
C     0.751611   30.755240    3.357208
C    32.785451   31.988142    3.353411
C     2.887182   31.988195    3.381652
C     7.157738   31.988816    3.439427
C    21.395723   31.988947    3.459576
C    11.428770   31.989270    3.462295
C    17.124104   31.988996    3.464193
C    25.667218   31.988610    3.426468
C    29.938168   31.988192    3.371042
C     0.040097   31.988032    3.355178
C     4.310781   31.988353    3.401301
C     8.581526   31.989019    3.451558
C    12.852623   31.989222    3.462752
C    15.700050   31.989081    3.463575
C    19.971698   31.989158    3.463942
C    24.243230   31.988938    3.442121
C    28.514390   31.988526    3.388806
C    30.649786   33.221303    3.366510
C     0.751800   33.221192    3.362728
C    19.260005   33.222245    3.463755
C     5.022568   33.221482    3.406006
C     9.293354   33.222290    3.446337
C    23.531555   33.222002    3.443532
C    27.802738   33.221500    3.395716
C    32.073876   33.221158    3.358552
C     2.175815   33.221234    3.373180
C     6.446462   33.221715    3.422092
C    10.717327   33.222361    3.452489
C    13.564414   33.222431    3.460000
C    17.835907   33.222343    3.465294
C    22.107407   33.222227    3.454129
C    14.988443   33.222314    3.462179
C    26.378706   33.221775    3.414026
C    17.124284   34.455397    3.457904
C    28.514157   34.454639    3.384963
C    32.785491   34.454370    3.361385
C     2.887479   34.454438    3.379329
C     7.158252   34.454970    3.418514
C    21.395756   34.455336    3.449411
C    25.667046   34.454837    3.414904
C    29.938267   34.454352    3.372487
C     0.040319   34.454277    3.362538
C     4.311409   34.454514    3.391627
C     8.582147   34.455172    3.428751
C    11.429131   34.455579    3.443897
C    12.853030   34.455499    3.448618
C    15.700254   34.455511    3.456555
C    19.971648   34.455487    3.455508
C    24.242978   34.455212    3.429676
C    26.378553   35.687941    3.398921
C    30.649935   35.687495    3.368590
C     0.752060   35.687418    3.367205
C     5.023270   35.687637    3.390571
C    14.988685   35.688427    3.441376
C    19.259875   35.688419    3.443752
C    23.531256   35.688131    3.423034
C    27.802451   35.687575    3.386100
C    32.073851   35.687436    3.364240
C     2.175901   35.687379    3.372610
C     6.446964   35.687806    3.400099
C     9.294016   35.688200    3.418364
C    10.717684   35.688348    3.425113
C    13.564937   35.688515    3.437371
C    17.836055   35.688532    3.445770
C    22.107369   35.688423    3.433248
C    24.242824   36.920843    3.403184
C    28.514103   36.920388    3.375090
C    32.785579   36.920363    3.364606
C     2.887725   36.920300    3.372817
C    12.853422   36.921018    3.416168
C    17.124326   36.921120    3.427415
C    21.395514   36.920978    3.419433
C    25.666806   36.920623    3.392684
C    29.938185   36.920316    3.368754
C     0.040360   36.920286    3.365247
C     4.311730   36.920362    3.377848
C     8.582633   36.920729    3.397450
C     7.158879   36.920622    3.391178
C    11.429688   36.920980    3.410731
C    15.700581   36.921180    3.425859
C    19.971600   36.921112    3.425207
C    22.107119   38.153472    3.397778
C    26.378329   38.153206    3.376137
C    30.649924   38.153058    3.363525
C     0.752152   38.153019    3.364326
C    10.718246   38.153312    3.388486
C    14.988993   38.153590    3.403590
C    19.259869   38.153584    3.406391
C    23.531047   38.153416    3.390429
C    27.802352   38.153064    3.369881
C     6.447444   38.153125    3.374655
C    32.073901   38.153045    3.362241
C     2.176082   38.153000    3.365748
C     5.023562   38.153094    3.371548
C     9.294541   38.153271    3.383699
C    13.565299   38.153515    3.399550
C    17.836093   38.153605    3.408119
C    24.242568   39.386138    3.371772
C    28.513992   39.385976    3.359927
C    32.785661   39.385961    3.358657
C     8.583035   39.385967    3.366168
C    12.853746   39.386079    3.378529
C    17.124456   39.386239    3.388423
C    21.395371   39.386116    3.382237
C     4.311879   39.385880    3.361007
C    25.666564   39.385992    3.366307
C    29.938072   39.385902    3.358116
C     0.040473   39.385914    3.358862
C     2.887965   39.385897    3.360773
C     7.159271   39.385946    3.364217