1183      
Geometry optimisation iteration:    14 | Lattice="34.1692 0.0000 0.0000  0.0000 39.4552 0.0000  0.0000 0.0000 100.0000"
Li    2.168187    1.174104    4.735447
Li    2.168800    6.098495    4.724322
Li    2.169502   11.023815    4.754140
Li    2.167542   15.970279    4.819805
Li    2.165231   20.885235    4.835441
Li    2.169572   25.826926    4.807511
Li    2.171141   30.769308    4.778420
Li    2.168436   35.679919    4.757893
Li   10.723515    1.177484    4.771701
Li   10.723097    6.091773    4.793707
Li   10.706132   11.013099    4.817024
Li   10.703653   15.948287    4.773720
Li   10.720270   20.890809    4.736785
Li   10.715889   25.848611    4.786625
Li   10.721593   30.771716    4.846337
Li   10.723567   35.678107    4.818405
Li   19.263824    1.176950    4.817153
Li   19.265264    6.089360    4.853551
Li   19.277740   10.994728    4.821004
Li   19.277513   15.979626    4.674628
Li   19.290942   20.896301    4.627860
Li   19.263885   25.821448    4.720901
Li   19.270256   30.786003    4.830141
Li   19.265153   35.678520    4.842320
Li   27.794534    1.175336    4.753111
Li   27.793219    6.097939    4.772376
Li   27.797533   11.021769    4.823664
Li   27.812373   15.963860    4.813867
Li   27.816400   20.889413    4.772840
Li   27.800830   25.832701    4.779435
Li   27.791683   30.764532    4.808124
Li   27.795039   35.681442    4.783854
Li    6.446929    3.624233    4.739261
Li    6.445593    8.572808    4.758820
Li    6.438803   13.482573    4.803636
Li    6.427819   18.419140    4.808469
Li    6.428619   23.381967    4.799610
Li    6.444985   28.289271    4.817753
Li    6.445974   33.226607    4.805186
Li    6.444916   38.163174    4.761422
Li   14.996407    3.625280    4.819870
Li   14.991466    8.540143    4.843553
Li   15.001709   13.485344    4.786276
Li   14.986262   18.429620    4.684425
Li   14.999320   23.384954    4.685804
Li   14.988811   28.303644    4.806780
Li   14.997754   33.228731    4.856604
Li   14.997770   38.163079    4.816099
Li   23.527459    3.625482    4.801120
Li   23.535701    8.566227    4.847710
Li   23.556154   13.474381    4.803266
Li   23.543419   18.432062    4.706089
Li   23.546842   23.382366    4.697700
Li   23.546548   28.296601    4.785751
Li   23.529033   33.226023    4.836490
Li   23.528175   38.163029    4.798627
Li   32.062778    3.623786    4.729770
Li   32.063267    8.573749    4.747555
Li   32.064722   13.490604    4.806983
Li   32.067507   18.423388    4.840502
Li   32.065280   23.370255    4.818874
Li   32.063287   28.283190    4.790192
Li   32.065926   33.228905    4.768508
Li   32.063926   38.163103    4.746858
C    17.828815   20.893026    2.756151
C    18.542660   22.129750    2.755646
C    18.542610   19.656336    2.757159
C    20.685264   20.893142    2.753682
C    19.970772   22.129950    2.754082
C    19.970861   19.655966    2.756502
C    16.407954   20.893286    2.782655
C    22.106101   20.893295    2.790984
C    17.832540   23.360037    2.789829
C    20.681017   23.360462    2.792116
C    17.832157   18.425590    2.787847
C    20.681248   18.425406    2.792466
C    15.697501   22.123957    2.783887
C    16.411361   23.360340    2.786396
C    15.697300   19.662388    2.782159
C    22.816368   22.124122    2.794150
C    22.102316   23.360341    2.793993
C    16.410986   18.425551    2.785416
C    22.816387   19.662188    2.799261
C    22.102532   18.425486    2.801928
C    18.542718   24.591133    2.804219
C    19.970299   24.591134    2.803751
C    18.542634   17.194348    2.789855
C    19.970762   17.194376    2.790413
C    14.270350   22.123894    2.802152
C    14.269903   19.662588    2.798400
C    24.243477   22.123721    2.811359
C    22.815556   24.597051    2.810520
C    15.698022   24.597377    2.808411
C    13.560044   20.893306    2.822315
C    24.243687   19.662653    2.818419
C    15.697731   17.188866    2.810491
C    13.556392   23.360243    2.818820
C    20.683985   25.827630    2.827444
C    22.815816   17.188840    2.827696
C    24.243361   24.596734    2.818910
C    24.957311   23.360100    2.818875
C    24.954000   20.893329    2.837635
C    17.829246   25.827510    2.830897
C    14.270061   24.597324    2.822937
C    22.105158   25.827377    2.842944
C     0.744646    6.097606    2.823631
C     1.458541    7.333385    2.824365
C     2.885498    7.333173    2.825836
C     1.458669    4.861940    2.824503
C    16.408263   25.827673    2.849284
C    33.493422    6.097732    2.838288
C     2.885566    4.861855    2.825732
C     3.599407    6.097494    2.826152
C    13.556169   18.425985    2.819389
C    20.684971   15.957650    2.818139
C    17.829006   15.957934    2.817157
C     0.747875    8.563724    2.841902
C    32.783004    4.867500    2.829142
C     0.748086    3.631816    2.838942
C    33.496937    3.631775    2.829347
C    32.782678    7.328139    2.835719
C     3.596127    8.563590    2.844625
C     5.019934    6.097399    2.844089
C     3.596227    3.631708    2.840984
C    33.496440    8.563850    2.837259
C    14.270036   17.188873    2.826402
C    31.356307    4.867568    2.833479
C     5.016679    3.631492    2.834572
C     1.458561    9.794351    2.839340
C     1.458883    2.401303    2.832540
C     5.730454    4.867236    2.835906
C    12.139336   20.893073    2.837170
C     2.885372    9.794206    2.840423
C     2.885621    2.401219    2.833587
C    32.783314    2.395613    2.833033
C    16.408554   15.958450    2.845652
C    30.642538    3.631831    2.835256
C     5.016711    8.563441    2.843958
C     5.730532    7.327666    2.843966
C    31.356507    2.395571    2.834419
C    12.136208   23.359788    2.858889
C    22.105538   15.958225    2.855733
C    24.957485   18.425945    2.839271
C     0.745091    1.165164    2.837488
C    30.645668    6.097684    2.853703
C     5.730290    2.395436    2.839587
C    31.356153    7.327900    2.843634
C    33.493978    1.165176    2.848568
C     7.157199    4.867220    2.843677
C     3.599394    1.165045    2.840020
C    26.377403   23.359264    2.857995
C    24.953133   25.827253    2.859743
C    24.243406   17.189061    2.845574
C     5.019772    1.164946    2.854481
C     7.157318    2.395319    2.844131
C    30.646034    1.165215    2.853323
C    29.222254    3.631992    2.856480
C    11.425872   22.129245    2.850421
C     0.744794   11.030290    2.851860
C     1.458896   39.384339    2.843469
C     7.871007    3.631441    2.846328
C    32.783027    9.800065    2.849698
C    32.783434   39.390013    2.844761
C     2.885609   39.384257    2.845281
C    19.970464   27.063951    2.852071
C     3.599007   11.030152    2.852784
C    26.374396   20.893026    2.856572
C    18.542838   27.063913    2.856056
C    31.356659   39.390073    2.846494
C     7.157101    7.327250    2.855455
C    28.511976    2.401474    2.850491
C    22.815410   27.057965    2.866454
C    29.225584    1.165258    2.849983
C     0.748337   38.154309    2.860508
C     5.730007    9.799558    2.856050
C     7.867582    6.097213    2.866866
C    33.497331   38.154382    2.850007
C    12.135935   18.426307    2.863543
C    13.560529   25.827610    2.876141
C    29.225245    6.097596    2.859108
C    11.425809   19.656784    2.853970
C    28.511632    4.862304    2.859464
C    33.493569   11.030372    2.870712
C     7.867650    1.164920    2.866193
C     5.730297   39.389737    2.855099
C     3.596149   38.154270    2.865643
C     5.019321   11.029768    2.872790
C     9.291371    3.631578    2.871383
C    27.087661   22.128766    2.863579
C    30.642305    8.563734    2.858346
C     1.459098   36.924378    2.856988
C    24.242303   27.057452    2.870336
C    32.783419   36.918968    2.856431
C    26.373602   25.826318    2.867003
C    27.087139   24.590116    2.866801
C    30.642725   38.154362    2.855856
C     2.885165   12.266006    2.864668
C     1.458482   12.266044    2.864739
C     2.885589   36.924393    2.860343
C     0.745112   35.688930    2.859908
C    11.426222   24.590730    2.878734
C    18.542957   14.721523    2.845848
C    19.970896   14.721383    2.845781
C    28.512087   39.384442    2.861015
C     7.157238   39.389751    2.860981
C     5.016538   38.154211    2.861161
C    31.356112    9.800029    2.862233
C    27.085064    2.401624    2.861100
C    33.494113   35.689072    2.871327
C    15.698090   27.057959    2.883341
C     9.288287    1.164935    2.866906
C    10.001539    2.401161    2.866893
C    31.356786   36.918891    2.860299
C     1.458992   34.453033    2.863692
C    29.222526   38.154361    2.876061
C     7.870655    8.563094    2.869850
C    13.560831   15.959207    2.882397
C     7.156921    9.799248    2.869998
C     0.748355   33.222787    2.878579
C     9.288249    6.097041    2.877538
C    32.783495   34.458856    2.868189
C    10.001729    4.861877    2.878094
C    26.377404   18.426587    2.883975
C    33.497197   33.222859    2.870357
C    12.139784   25.827002    2.885140
C     9.998736   22.129202    2.870775
C     3.599622   35.688944    2.869220
C    26.371529    1.165284    2.869374
C    27.085082    4.862031    2.873863
C     2.885833   34.453066    2.869741
C    27.087427   19.657147    2.876355
C    27.085303   39.384348    2.870262
C    26.374836    3.631959    2.885302
C     1.458941   31.992467    2.874761
C    28.511764    7.333109    2.877378
C    14.271051   27.057818    2.893522
C    15.698536   14.728647    2.878046
C    30.646207   35.689120    2.883884
C     0.745172   30.756782    2.879969
C    11.428692    2.401360    2.879204
C    29.222289    8.563221    2.891444
C     5.730246   36.918774    2.874857
C     5.729697   12.259987    2.886776
C    32.783586   31.986792    2.877692
C    31.356808   34.459055    2.874749
C    32.782998   12.260421    2.888081
C    20.680750   28.293500    2.898964
C    22.101508   28.293080    2.891205
C    33.494110   30.756795    2.892079
C    11.426184   17.195839    2.884547
C     7.870992   38.154165    2.877082
C     2.885769   31.992694    2.881466
C     9.998579   19.656891    2.876630
C    10.001539   39.384180    2.882580
C     9.999382   24.590243    2.894715
C    24.953042   15.959018    2.896721
C     3.595436   13.495683    2.898570
C     0.747888   13.495783    2.899692
C    22.815564   14.728295    2.891649
C    28.513501   24.589682    2.886473
C    27.086709   27.062388    2.885831
C     5.019668   35.689102    2.891898
C     3.596309   33.222887    2.893157
C    28.512110   36.924339    2.882798
C     9.289054   23.359736    2.901288
C     1.458957   29.521292    2.887852
C    28.513981   22.128934    2.885349
C     9.284910   20.893285    2.880030
C    17.832833   28.293431    2.907282
C    14.271594   14.728928    2.892959
C    24.951270    1.165321    2.898096
C    12.140159   15.959682    2.891990
C    24.956020   28.292874    2.892688
C    12.142047    1.165067    2.888430
C    30.645944   11.029992    2.902531
C    29.225981   35.689008    2.885825
C    11.428493    4.861526    2.894549
C    12.138690    3.631591    2.904525
C     9.290737    8.562373    2.903118
C     5.015760   13.495225    2.897841
C     7.866740   11.029372    2.904200
C    31.356803   31.986885    2.885795
C    32.783601   29.526772    2.891888
C     7.157131   36.918635    2.885406
C    10.001339    7.332365    2.895837
C    30.643078   33.222939    2.885804
C    26.375228   38.154385    2.899366
C     2.885509   29.521370    2.893476
C     9.291262   38.154221    2.902150
C    33.496891   13.495689    2.900379
C     3.599449   30.756895    2.892451
C    24.954412    3.631850    2.895503
C    11.428618   39.384088    2.892481
C     0.748384   28.291533    2.906254
C     7.156119   12.259340    2.900570
C    16.412024   28.293295    2.907002
C    28.513381   27.062043    2.893620
C    29.223700   23.359167    2.906604
C    24.241160    2.395958    2.898556
C    26.371306    6.097439    2.893374
C    26.376124   28.292210    2.907847
C    33.497408   28.291424    2.896742
C    29.226938   25.825904    2.894546
C    31.356606   12.260047    2.902206
C    27.085518   36.924516    2.893901
C     5.016648   33.223071    2.900925
C    31.357133   29.527043    2.897470
C    27.085086    7.333035    2.896673
C    24.242385   14.728964    2.903978
C     2.884814   14.725536    2.909653
C     5.730235   34.458934    2.901031
C    30.646533   30.756860    2.908874
C    27.086989   17.195884    2.906277
C     1.458471   14.725641    2.910084
C    13.562597    1.165167    2.916498
C    24.241264   39.390040    2.901288
C     9.286012   25.826683    2.906804
C     9.288817   18.426815    2.911496
C     9.999027   17.196447    2.901336
C    11.426808   27.063628    2.906971
C    28.514197   19.656984    2.898420
C     3.595786   28.291546    2.916798
C    17.833309   13.493050    2.907608
C     7.868822   23.359324    2.906686
C     1.458728   27.061351    2.907506
C    30.643292   28.291574    2.901026
C    20.680946   13.492863    2.912002
C    29.223313   28.292183    2.913618
C    28.512443   34.453109    2.899819
C    26.373384   15.959966    2.911349
C    32.783924   27.055584    2.904750
C    28.512235    9.793596    2.911922
C    29.222973   33.223153    2.911752
C    13.559339    3.631519    2.915323
C    24.954821   38.154432    2.903529
C     5.019396   30.757108    2.919287
C    31.357121   27.055677    2.903011
C     2.885246   27.061438    2.911143
C    29.227955   20.893009    2.900374
C    30.647042   25.825391    2.916490
C    14.272455    2.395738    2.916570
C    16.412739   13.493148    2.902586
C     9.287045   11.028722    2.915194
C     7.865151   20.893474    2.917377
C    29.225804   11.029339    2.916207
C     5.729140   14.730586    2.916166
C    22.814115    2.395813    2.912528
C    28.512740   29.521873    2.913173
C    10.000654    9.792665    2.915177
C    22.814910   29.528573    2.913473
C    29.226354   30.757354    2.911968
C    24.242072   29.528491    2.911452
C     7.155538   24.595642    2.912115
C    22.101666   13.493292    2.915046
C     7.865965   25.826103    2.924790
C     7.867347   35.689190    2.919932
C     7.869614   13.494719    2.916651
C     5.729998   31.987011    2.913677
C     5.015920   28.291873    2.918647
C    12.141990    6.096818    2.913968
C    24.241144    4.867552    2.914444
C     9.999518   27.063172    2.912813
C    13.557603   28.293376    2.921055
C     7.155185   22.123645    2.914049
C    11.427018   14.723237    2.911430
C    27.086219   29.522151    2.914627
C     0.745161   25.825172    2.916740
C    11.428265    7.332417    2.915508
C    19.970224   29.522912    2.923526
C    33.494272   25.825287    2.925910
C    12.138425   38.154235    2.925321
C    30.643816   23.358987    2.917866
C     7.156875   34.459200    2.915134
C    22.814129   39.390178    2.913659
C    22.104392    1.165357    2.927608
C    10.001383   36.924254    2.917439
C    14.272367   39.389895    2.919687
C    28.512721   31.992980    2.915441
C    31.357299   24.595009    2.918586
C    32.783417   14.731014    2.921463
C     5.729703   29.527198    2.921528
C     7.155675   14.730343    2.920374
C     3.598665   25.825347    2.919310
C    26.371632   35.689087    2.910693
C    24.951418    6.097108    2.928258
C     9.285466   15.959802    2.911251
C     5.729340   27.056100    2.922920
C    18.543314   29.523023    2.927960
C     5.018772   25.826024    2.930152
C     3.598320   15.961015    2.924568
C    15.699770    2.395628    2.926610
C     7.156047   27.056407    2.924043
C    13.557921   13.493329    2.917971
C     7.868579   18.427190    2.919439
C     5.728720   24.595533    2.916512
C     9.999422   14.723534    2.913864
C     0.744724   15.961142    2.927385
C     9.289490   13.493782    2.932337
C    30.642891   13.495333    2.922523
C    27.085433   34.453162    2.912910
C     5.018498   15.960445    2.934015
C    12.137202   28.292991    2.936042
C     7.155251   19.663292    2.921483
C    32.784099   24.594915    2.925076
C    10.000398   12.264289    2.928585
C    28.513601   17.196465    2.924599
C    16.409455    1.165231    2.937877
C     7.865456   15.960365    2.931693
C     2.885112   24.588969    2.925529
C    29.223754   18.426995    2.933331
C    22.100769    3.631869    2.924629
C     1.458508   24.588838    2.926137
C    13.559028   38.154295    2.926047
C    12.137613   13.493858    2.935740
C    15.699707   39.390125    2.927373
C    26.375366    8.562836    2.936552
C    20.683762    1.165381    2.927110
C     9.287678   35.689084    2.925345
C    24.241396   36.918912    2.921577
C    14.272456    4.866993    2.931630
C     5.014848   23.359075    2.922491
C    26.372281   30.757443    2.925646
C    11.428195   36.924454    2.926893
C     7.155328   17.190702    2.924993
C     5.728586   22.123432    2.924389
C     7.869794   28.292106    2.930920
C    33.493946   15.960871    2.942040
C    17.830242    1.165289    2.932236
C    30.647454   20.893297    2.936799
C    31.356809   14.730906    2.928272
C     7.156252   29.527677    2.932307
C    27.085713    9.792894    2.930892
C     7.156744   31.987059    2.928152
C    31.357507   22.123264    2.930461
C    27.085769   31.993422    2.926196
C    19.970656    2.401703    2.931680
C     9.289778   28.292884    2.941763
C    22.814280    4.867590    2.928923
C    27.086743   14.724243    2.930770
C    15.698704   29.528821    2.932188
C    22.100609   38.154374    2.926296
C     2.884933   17.197189    2.933922
C    28.512499   12.265098    2.934283
C    18.543248    2.401633    2.933960
C     3.594885   23.358691    2.941307
C     5.728492   17.190654    2.927421
C    24.952044   30.757868    2.940065
C    13.562177    6.096382    2.943913
C    19.970558   39.384504    2.934338
C    16.413031    3.631590    2.935829
C    11.427596    9.792174    2.934396
C    24.956416   13.493580    2.924948
C    24.951626   35.689408    2.938071
C    33.497660   23.358875    2.934630
C     7.870400   33.223126    2.929814
C    11.427376   12.264011    2.936707
C     0.748244   23.358671    2.946008
C     1.458186   17.197427    2.936022
C    29.223090   13.494596    2.943262
C    26.375401   33.223256    2.940735
C    18.543345   39.384501    2.936658
C     5.728513   19.663501    2.930488
C    20.680429    3.631848    2.946383
C     5.018405   20.893468    2.944309
C    12.137873    8.562158    2.947215
C    14.271257   29.528768    2.936045
C    29.227111   15.960469    2.934317
C     5.014814   18.427347    2.931757
C    28.513186   14.724434    2.935262
C    22.104659   30.757678    2.946749
C     7.866787   30.757098    2.948624
C    18.543500   12.263417    2.936926
C    17.833643    3.631743    2.951446
C    32.783980   22.123037    2.939791
C    19.970582   12.263581    2.936136
C     2.884784   22.128662    2.942095
C    26.376292   13.494573    2.945061
C    22.814270   36.918808    2.931661
C    30.647028   15.960819    2.948481
C    15.699609    4.867097    2.941680
C    30.643865   18.427211    2.941335
C    20.680248   38.154408    2.948176
C     3.594953   18.427453    2.948393
C    16.413101   38.154295    2.937126
C    20.683937   30.758032    2.940557
C     1.458362   22.128555    2.943811
C    15.699159   12.257174    2.929783
C    31.357459   19.663137    2.943002
C    14.271449   12.257520    2.931437
C    32.783890   17.191310    2.945243
C     3.598384   20.893259    2.943005
C    24.241524    7.326876    2.945265
C    12.140969   11.028382    2.943638
C    10.000490   29.522457    2.947833
C     0.748051   18.427438    2.955387
C    17.833671   38.154418    2.953291
C    31.357250   17.191053    2.945111
C     2.884738   19.657617    2.944830
C    27.086085   12.264761    2.941069
C    11.427133   29.522632    2.947588
C     0.744698   20.893274    2.947528
C    33.493930   20.893337    2.956975
C    22.815113   12.257470    2.938013
C    14.272218   36.918820    2.941746
C    10.000901   34.453104    2.940128
C     1.458230   19.657545    2.947147
C    26.372331   11.028943    2.943516
C    33.497252   18.427295    2.949328
C    24.241683   31.987583    2.945803
C    24.955156    8.562393    2.947847
C    24.955044   33.223541    2.944949
C    32.783787   19.663312    2.950229
C     9.290529   33.223302    2.953803
C     9.287080   30.757621    2.951125
C    24.241597   34.459380    2.945825
C    24.242537   12.257624    2.936504
C    17.829788   30.758058    2.948574
C    12.141815   35.689057    2.942476
C    19.970523    4.861614    2.952828
C    22.104499    6.097058    2.959851
C    15.699556   36.918737    2.945457
C    18.543500    4.861530    2.955032
C    22.814652   31.987537    2.949632
C    19.970418   36.924539    2.951968
C    13.561375   11.027750    2.960788
C    16.409132   30.757972    2.960758
C    14.271906    7.326106    2.952989
C    22.104486   35.689278    2.959128
C    13.558464    8.561800    2.956361
C    10.000551   31.993230    2.954205
C    18.543348   36.924543    2.954323
C    11.428173   34.453051    2.947583
C    13.562166   35.689306    2.961634
C    24.952488   11.028110    2.959588
C    22.814744    7.326600    2.957689
C    12.140996   30.757742    2.957028
C    22.814628   34.459488    2.953405
C    13.561493   30.758184    2.965250
C    16.409587    6.096446    2.966439
C    20.684031    6.096793    2.959666
C    19.970768   31.993868    2.952953
C    24.241952    9.798266    2.958565
C    20.683962   35.689157    2.955918
C    22.101240   33.223482    2.957139
C    16.409420   11.027710    2.966102
C    11.427750   31.993501    2.959476
C    17.830135    6.096627    2.963823
C    22.104978   11.028098    2.965372
C    17.829818   11.027731    2.955973
C    20.684557   11.027568    2.952726
C    14.271630    9.797870    2.964470
C    18.542933   31.993886    2.956398
C    15.699432    7.325810    2.961579
C    16.409354   35.689252    2.969033
C    17.829902   35.689160    2.960938
C    12.138165   33.223244    2.970126
C    20.680783   33.223624    2.969390
C    15.699098   31.987626    2.965413
C    14.271981   34.459324    2.965325
C    19.970606   34.453324    2.961485
C    14.271833   31.987675    2.966621
C    22.814945    9.798037    2.964031
C    22.101419    8.562134    2.966618
C    13.558733   33.223533    2.967972
C    15.699110    9.797700    2.969261
C    15.699195   34.459479    2.966895
C    18.543093   34.453352    2.963864
C    19.970698    7.331954    2.968613
C    17.833005   33.223579    2.975065
C    18.543339    7.331780    2.970213
C    16.412398   33.223520    2.968474
C    16.412719    8.561689    2.969804
C    19.971069    9.791057    2.958465
C    18.543163    9.791135    2.961501
C    20.680973    8.561341    2.976652
C    17.833281    8.561358    2.979776
C    17.838828   20.903006    6.446979
C    17.842699   18.428296    6.471094
C    18.554492   19.660092    6.476659
C    15.701630   19.669157    6.493707
C    18.555702   22.141031    6.483812
C    19.988838   19.662806    6.489954
C    18.555362   17.195389    6.490918
C    15.700697   17.184293    6.504200
C    19.989966   17.196818    6.501748
C    16.415425   20.899807    6.514168
C    20.703027   18.425405    6.499816
C    20.703794   20.902091    6.516284
C    16.418764   18.426994    6.546232
C    15.701896   22.135330    6.525855
C    17.838344   15.955887    6.538210
C    19.988046   22.141573    6.526342
C    20.704939   15.950587    6.525119
C    18.553094   14.713756    6.529074
C    16.412613   15.953835    6.557287
C    16.419384   23.371243    6.540044
C    22.127819   18.426466    6.545573
C    13.558651   20.902069    6.559509
C    22.132117   20.901634    6.571292
C    20.700646   23.377838    6.548948
C    14.269544   22.132000    6.574065
C    13.554826   18.426908    6.554004
C    19.984900   14.716658    6.568369
C    22.133114   15.950244    6.550306
C    22.128788   23.379064    6.550488
C    14.273173   19.667014    6.597882
C    14.271196   17.187792    6.597831
C    17.844461   23.370731    6.592005
C    13.550241   23.375777    6.556223
C    22.842949   19.668200    6.578995
C    13.556142   15.950080    6.581289
C    22.843839   17.181137    6.573664
C    22.844118   22.143076    6.587378
C    15.702772   24.611351    6.592699
C    12.132664   20.899751    6.606805
C    11.411997   22.140869    6.588006
C    14.264417   14.720838    6.608048
C    24.278504   22.140853    6.584844
C    11.417609   19.659316    6.595804
C    12.124842   23.372217    6.585157
C    11.415628   17.192805    6.600035
C    20.704329   25.848519    6.572935
C    12.131201   18.427300    6.604959
C    14.269158   24.611406    6.589751
C    18.557913   24.606826    6.598896
C    24.989163   20.903982    6.594623
C    19.987522   24.606197    6.613755
C    15.698630   14.722987    6.666337
C     9.981932   19.659004    6.602019
C     9.981069   22.138983    6.596318
C    22.846041   24.614645    6.603860
C    24.275512   19.666547    6.622144
C    22.131867   25.845133    6.592974
C    12.131842   15.952908    6.618416
C    24.988827   23.377482    6.599967
C    16.419421   25.846365    6.626661
C    24.990989   18.424627    6.608831
C    17.839362   13.486579    6.673576
C    20.697167   13.480552    6.641219
C     0.748337    6.095308    6.618711
C     1.461475    4.860707    6.618114
C     0.751459    3.631801    6.609624
C    32.788453    4.866209    6.619888
C    33.501495    3.631515    6.619664
C    33.498556    6.095275    6.609987
C    24.274545   17.180778    6.620175
C     2.886975    4.860521    6.619570
C     9.982599   17.193869    6.620740
C     1.461379    7.329795    6.621240
C    32.788231    2.396520    6.623212
C     1.461502    2.402751    6.624463
C    24.271507   24.613782    6.608713
C     3.597369    3.631463    6.612684
C     2.887414    2.402594    6.625297
C    18.552606   12.246169    6.639450
C     3.599940    6.094621    6.621925
C    31.362939    4.865927    6.625022
C     2.886695    7.329407    6.623401
C    31.362316    2.396104    6.625644
C    17.844012   25.846205    6.626958
C     0.748224    1.167776    6.626961
C    30.649182    3.630982    6.627174
C    33.498129    1.167444    6.616025
C    32.789392    7.324214    6.627860
C     5.016534    3.630739    6.627263
C     0.751896    8.559246    6.617830
C     3.600708    1.167635    6.628269
C    30.652012    1.166999    6.619957
C    32.788072   39.393690    6.631813
C    26.406364   20.902295    6.634340
C    18.560076   27.088113    6.619692
C     1.461668   39.388262    6.629463
C     5.020075    1.167292    6.621741
C     5.730329    2.395918    6.630798
C     5.019186    6.093851    6.619093
C     2.887339   39.388224    6.630563
C    31.362205   39.393534    6.633865
C    33.502599    8.559354    6.631833
C     5.729877    4.864849    6.630225
C     9.266831   20.897817    6.631837
C    30.653543    6.094848    6.624127
C    26.403761   23.373771    6.614491
C    29.232739    1.166824    6.634806
C    29.229777    3.630487    6.624896
C     0.751608   38.159259    6.623539
C     9.266193   23.372728    6.620883
C    33.501596   38.159287    6.634311
C     3.595792    8.558548    6.623152
C    28.519289    2.401442    6.638117
C    22.843329   14.719300    6.651098
C    31.363997    7.323980    6.636172
C     7.156436    2.395346    6.636068
C    16.412829   13.484674    6.679808
C    30.648737   38.159176    6.639386
C    13.546858   13.479909    6.643991
C    19.990535   27.087301    6.623341
C     5.730593   39.393794    6.641685
C     1.461249    9.788766    6.638139
C     9.270806   18.427367    6.638445
C     3.597618   38.159274    6.627905
C    28.519046   39.387673    6.639749
C    32.788407   36.924897    6.638494
C     2.886118    9.788480    6.640454
C     1.461795   36.930434    6.640839
C    31.362681   36.924987    6.641444
C     5.728240    7.322240    6.640447
C    29.229527   38.159231    6.632638
C     7.867343    1.166564    6.632025
C     7.155546    4.863869    6.639589
C     5.016920   38.159421    6.645215
C     7.156722   39.393476    6.646133
C    27.114138   22.138209    6.638820
C     2.887639   36.930380    6.643158
C     5.014495    8.557819    6.643378
C    28.520338    4.859074    6.648090
C    33.498628   35.695779    6.632746
C     7.869812    3.629410    6.641046
C     0.748667   35.695588    6.645602
C    27.093177    2.401117    6.647231
C    29.234571    6.093885    6.649117
C    27.093228   39.387769    6.646630
C    32.790662    9.794831    6.646320
C    32.789321   34.466346    6.650087
C    26.379190    1.166611    6.650316
C    30.653039   35.696103    6.640129
C     9.286869    1.166216    6.652051
C    11.409081   24.610674    6.649579
C    24.978310   25.841940    6.630590
C    28.519752   36.930920    6.656615
C     1.462076   34.460443    6.651441
C     0.749228   11.025006    6.650599
C    15.695679   12.245844    6.686027
C    33.502661   33.230823    6.653189
C    31.363547   34.466721    6.654589
C     0.752393   33.230755    6.643288
C    30.652038    8.558770    6.653205
C     3.600998   35.695921    6.652863
C    22.123197   13.482251    6.675503
C     7.154022    7.321333    6.652871
C     7.870690   38.159316    6.656679
C     5.730790   36.925335    6.655532
C    29.233858   35.696464    6.660894
C    26.410007   18.425545    6.644088
C     7.865170    6.091925    6.643335
C    13.553930   25.851918    6.660338
C    26.382736   38.159459    6.649021
C     9.289427    3.628787    6.645592
C     2.887837   34.460757    6.657079
C    26.383082    3.629563    6.649596
C    32.790231   31.995421    6.658823
C     7.850316   20.898917    6.642568
C     3.597868   11.024218    6.654224
C    33.500367   11.025155    6.647185
C    27.109229   24.601341    6.654184
C    24.982542   15.949527    6.647879
C    19.984764   12.247340    6.691328
C    10.000681    2.400077    6.659031
C    10.001409   39.387203    6.659854
C    27.117653   19.661802    6.656550
C    27.094355    4.858271    6.662145
C    27.093793   36.931215    6.665388
C    24.959581    1.166474    6.653918
C     1.461865   32.001340    6.662315
C    14.263270   12.243202    6.669017
C     5.726410    9.792647    6.658496