==================================================================================
It's Fri 20 Oct 2023 11:54:19 AM BST.
*** Starting onetep_launcher (node nid001174, PIDs 62540 62541 62542 62543 62544 62545 62546 62547 62548 62549 62550 62551 62552 62553 62554 62555)...
    - ONETEP arguments: graphite.dat
    - Current directory: /mnt/lustre/a2fs-work3/work/e89/e89/arihant/linuc/theta/new/32/0.0
    - Launcher executable directory: /mnt/lustre/a2fs-work3/work/e89/e89/arihant/onetep/utils
    - (-e) ONETEP executable specified through command-line: /work/e89/e89/arihant/onetep/bin/onetep.archer2_2023_cray
      ... trying /work/e89/e89/arihant/onetep/bin/onetep.archer2_2023_cray
          -> looks OK
*** Setting up environment...
    - (-s) Process stack size: unlimited
    - (-t) OMP_NUM_THREADS: 8
    - (-o) OMP_STACKSIZE: 64M
    - (-c) Maximum core file size: 2048000
    - (-d) decfort_dump_flag: n
    - (-m) I_MPI_OFA_TRANSLATION_CACHE: 0
    - (-m) I_MPI_DAPL_TRANSLATION_CACHE: 0
    - (-m) I_MPI_DAPL_UD_TRANSLATION_CACHE: 0
*** Starting ONETEP...
    - /work/e89/e89/arihant/onetep/bin/onetep.archer2_2023_cray graphite.dat
=================================================================================
_________________________________________________________________________________
 +---------------------------------------------------------------+
 |                                                               |
 |        ####### #     # ####### ####### ####### ######         |
 |        #     # ##    # #          #    #       #     #        |
 |        #     # # #   # #          #    #       #     #        |
 |        #     # #  #  # #####      #    #####   ######         |
 |        #     # #   # # #          #    #       #              |
 |        #     # #    ## #          #    #       #              |
 |        ####### #     # #######    #    ####### #              |
 |                                                               |
 |        Linear-Scaling Ab Initio Total Energy Program          |
 |                                                               |
 |          Release for academic collaborators of ODG            |
 |                                             Version 6.1.59    |
 | Remote: https://github.com/onetep-devel/onetep.git            |
 | Local branch: master                                          |
 | Commit ID: 3df6b8ca88fa1735659d3248d54c94b50edec21b           |
 | Date: Thu Oct 5 13:49:52 2023 +0200                           |
 | Working tree clean                                            |
 |                                                               |
 +---------------------------------------------------------------+
 |                                                               |
 |  Authors:                                                     |
 |  Jacek Dziedzic, Peter D. Haynes, Nicholas D. M. Hine,        |
 |  Arash A. Mostofi, Mike C. Payne and Chris-Kriton Skylaris    |
 |                                                               |
 |  Contributors:                                                |
 |  J. Aarons, L. Andrinopoulos, P. W. Avraam, R. A. Bell,       |
 |  A. Bhandari, G. A. Bramley, R. J. Charlton, S. J. Clark,     |
 |  R. J. Clements, G. C. Constantinescu, F. Corsetti,           |
 |  N. Corsini, O. Dieguez, S. M. M. Dubois, K. K. B. Duff,      |
 |  J. M. Escartin, M. Escobar Azor, A. Greco,                   |
 |  H. Helal, Q. O. Hill, L. P. Lee, J.-H. Li,                   |
 |  E. B. Linscott, G. Moynihan, D. D. O`Regan,                  |
 |  O. K. Okan, M. J. S. Phipps, C. J. Pickard,                  |
 |  J. C. A. Prentice, M. I. J. Probert, L. E. Ratcliff,         |
 |  M. Robinson, A. Ruiz Serrano, M. dos Santos Dias,            |
 |  J. S. Spencer, E. W. Tait, G. Teobaldi, D. Turban,           |
 |  V. Vitale, K. A. Wilkinson, C. Weber, J. C. Womack,          |
 |  N. Yeung and T. J. Zuehlsdorff                               |
 |                                                               |
 |                                   Copyright (c) 2004-2023     |
 |                                                               |
 |  Please cite:                                                 |
 |  "The ONETEP linear-scaling density functional theory program"|
 |   J. Chem. Phys. 152(17) 174111 (2020)                        |
 |                                                               |
 |          in all publications arising from your use of ONETEP. |
 |                                                               |
 +---------------------------------------------------------------+
 |                                                               |
 |   ONETEP is based on developments described in the following  |
 |   publications:                                               |
 |                                                               |
 |  "Nonorthogonal generalized Wannier function pseudopotential  |
 |   plane-wave method".                                         |
 |   C.-K. Skylaris, A. A. Mostofi, P. D. Haynes, O. Dieguez,    |
 |   M. C. Payne.                                                |
 |   Phys. Rev. B 66 035119 (2002).                              |
 |                                                               |
 |  "Preconditioned iterative minimization for linear-scaling    |
 |   electronic structure calculations".                         |
 |   A. A. Mostofi, P. D. Haynes, C.-K. Skylaris, M. C. Payne.   |
 |   J. Chem. Phys. 119(17), pp.8842-8848 (2003).                |
 |                                                               |
 |  "Total-energy calculations on a real space grid with         |
 |   localized functions and a plane-wave basis".                |
 |   A. A. Mostofi, C.-K. Skylaris, P. D. Haynes, M. C. Payne.   |
 |   Comput. Phys. Commun. 147, pp.788-802 (2002).               |
 |                                                               |
 |  "Accurate kinetic energy evaluation in electronic structure  |
 |   calculations with localized functions on real space grids"  |
 |   C.-K. Skylaris, A. A. Mostofi, P. D. Haynes, C. J. Pickard, |
 |   M. C. Payne.                                                |
 |   Comput. Phys. Commun. 140, pp.315-322 (2001).               |
 |                                                               |
 |  "Accurate ionic forces and geometry optimization in linear-  |
 |   scaling density-functional theory with local orbitals"      |
 |   N. D. M. Hine, M. Robinson, P. D. Haynes, C.-K. Skylaris,   |
 |   M. C. Payne, and A. A. Mostofi.                             |
 |   Phys. Rev. B 83 195102 (2011).                              |
 |                                                               |
 +---------------------------------------------------------------+

Job started: 20-10-2023 11:54 (+0100)
 
Reading parameters from file "graphite.dat" ...... done

If your calculation crashes here, before "Checking processes and threads..."
is displayed, then your stack size is insufficient.
If so, use "ulimit -s unlimited" at runtime.
You can disable this check with "check_stack_size F".

Checking processes and threads...
   Determining the default number of threads...
      No default threads set at compilation time: defaulting to 1.
      OpenMP library call suggests 8 threads.
      Hybrid MPI-OpenMP compilation detected.
      Number of MPI processes > 1.
      OMP_NUM_THREADS environment variable present and
      its value matches the one obtained from the OpenMP library call.
      Using this value as default.
      Default threads: 8
      Default applies to threads_max and threads_num_fftboxes.
      Settings in the input file override this default.
   ... done

   Running with 128 MPI processes.
   There are 16 MPI processes running on the same node as the root process.
   Each MPI process is using: 
               1 threads for simulation cell FFTs.
               1 threads for parallel FFT box operations.
               8 threads for loops over batched FFT box operations.
               8 threads in other parallel regions.
   MPI Interface: S1 (use mpi_f08) (-DMPI -DUSE_MPI_F08).
   MPI_ASYNC_PROTECTS_NONBLOCKING: Yes. MPI_SUBARRAYS_SUPPORTED: Yes.
   GPU Interface: None.
... done

Basic input checks...
Resetting ngwf_cg_rotate to TRUE for EDFT calculations
... done

Reading geometry and species blocks from file "graphite.dat" ...
  Reading POSITIONS geometry from str.xyz

  <species_atomic_set> block not found: NGWF initialisation set to SOLVE
IS: Dielectric excluded regions:
    - NONE.
IS: Assigning soft sphere radii for soft sphere solvation...
IS: No soft sphere radii specified. Default Alvarez radii used for all atoms.

----------- SOFT SPHERE RADII -----------
Li  5.333
C   4.442
-----------------------------------------

    
  Number of PPD points along a3 set to 1.  This is 
  the default value, it may have been provided also in the input file.
... done
 Writing xyz coordinates to file "graphite.xyz" ... done


--------------------------------------------------------------------------------
---------------------------------- INPUT FILE ----------------------------------
--------------------------------------------------------------------------------

task geometryoptimization                                                       
geom_method LBFGS                                                               
geom_continuation F                                                             
write_xyz T                                                                     
edft_grand_canonical T                                                          
edft_reference_potential  -4.42 eV                                              
edft_electrode_potential 0.0 V                                                  
edft_nelec_thres 0.000001                                                       
is_dielectric_function soft_sphere                                              
is_implicit_solvent T                                                           
is_smeared_ion_rep T                                                            
is_include_apolar T                                                             
is_solvation_properties F                                                       
is_pbe                    full                                                  
is_pbe_temperature        298.15                                                
is_pbe_bc_debye_screening T                                                     
is_pbe_neutralisation_scheme counterions_auto                                   
is_pbe_energy_tolerance 1E+50                                                   
is_bc_coarseness 5                                                              
is_bc_threshold 1E-9                                                            
is_bulk_permittivity 90.7                                                       
is_solvent_surf_tension 0.0506 N/m                                              
%block sol_ions                                                                 
Li  +1 1.0                                                                      
PF6 -1 1.0                                                                      
%endblock sol_ions                                                              
is_steric_pot_type M                                                            
is_hc_steric_dens_isovalue  0.001                                               
is_hc_steric_smearing         0.4 bohr                                          
is_steric_write T                                                               
%block species_solvent_radius                                                   
Li 3.0                                                                          
C 3.0                                                                           
%endblock species_solvent_radius                                                
multigrid_bc:   P P P                                                           
ion_ion_bc:     P P P                                                           
pspot_bc:       P P P                                                           
smeared_ion_bc: P P P                                                           
mg_max_iters_vcycle 500                                                         
mg_vcyc_smoother_iter_pre 4                                                     
mg_vcyc_smoother_iter_post 4                                                    
mg_max_res_ratio 1000.0                                                         
mg_max_iters_newton 300                                                         
edft                    : T                                                     
edft_smearing_width     : 0.1 eV                                                
spin                    : 0.0                                                   
edft_spin_fix           : 2                                                     
spin_polarized          : T                                                     
cutoff_energy :  1000 eV                                                        
kernel_cutoff : 1000 bohr                                                       
xc_functional PBE                                                               
dispersion 4                                                                    
output_detail VERBOSE                                                           
do_properties T                                                                 
cube_format F                                                                   
dx_format F                                                                     
write_denskern T                                                                
write_tightbox_ngwfs T                                                          
write_hamiltonian T                                                             
%block species                                                                  
Li Li 3  5  8.0                                                                 
C  C  6  4  8.0                                                                 
%endblock species                                                               
%block species_pot                                                              
Li '/work/e89/e89/arihant/pseudo/Li.usp'                                        
C '/work/e89/e89/arihant/pseudo/C.usp'                                          
%endblock species_pot                                                           
%BLOCK LATTICE_CART                                                             
ang                                                                             
34.16920551     0.00000000     0.00000000                                       
0.00000000    19.72760000     0.00000000                                        
0.00000000     0.00000000   100.02798000                                        
%ENDBLOCK LATTICE_CART                                                          
positions_xyz_file str.xyz                                                      
     Hash =  -000009161652861074163911

--------------------------------------------------------------------------------
-------------------------------- END INPUT FILE --------------------------------
--------------------------------------------------------------------------------


 
 ESDF WARNING(1): "ispbeenergytolerance" (esdf_physical) has no units. Assume "hartree".
<<<<<<<<<<<<<<<<<<<<<<<<<<<<<<<<< Full system >>>>>>>>>>>>>>>>>>>>>>>>>>>>>>>>>>
<<<<<<<<<<<<<<<<<<<<<<<<< Pseudopotential information >>>>>>>>>>>>>>>>>>>>>>>>>>
File: /work/e89/e89/arihant/pseudo/Li.usp [ 2001 points up to Gmax=  52.9 (1/bohr)]
  Atomic number:  3;  ionic charge:  3.000000
    Shell 1: l = 0; rc = 1.19 bohr
    Shell 2: l = 0; rc = 1.25 bohr
File: /work/e89/e89/arihant/pseudo/C.usp [ 2001 points up to Gmax=  52.9 (1/bohr)]
  Atomic number:  6;  ionic charge:  4.000000
    Shell 1: l = 0; rc = 1.19 bohr
  Core charge supplied for Nonlinear Core Corrections
<<<<<<<<<<<<<<<<<<<<<<<<<<<<<<<<<<<<<<<<>>>>>>>>>>>>>>>>>>>>>>>>>>>>>>>>>>>>>>>>

-------------------------- Atom counting information ---------------------------
Symbol    Natoms    Nngwfs    Nprojs
  Li        32       160        64
  C        512      2048       512
.......   ......    ......    ......
Totals:    544      2208       576
--------------------------------------------------------------------------------

=============================== PSINC grid sizes ===============================
                      Simulation cell:  143 x  91 x 416
                              FFT-box:  117 x  91 x 117
                                  PPD:   11 x   7 x   1
Grid space d1=  0.451541543008a0 (KE cutoff=  37.25706Eh =1013.81618eV)
Grid space d2=  0.409667706512a0 (KE cutoff=  45.26271Eh =1231.66098eV)
Grid space d3=  0.454388192297a0 (KE cutoff=  36.79171Eh =1001.15326eV)
================================================================================
  
WARNING in cell_grid_distribute:
Average of less than one 23-slab per proc, so workload cannot be
equally balanced between procs.

********************* Fourier parallelisation information **********************
       Coarse grid (whole simulation cell) dimensions:    143    91   416
          Real-space ('12') slabs/proc (min max mean):      3     4     3
         Recip-space ('23') slabs/proc (min max mean):      0     1     0
********************************************************************************

********************* Fourier parallelisation information **********************
       Double grid (whole simulation cell) dimensions:    286   182   832
          Real-space ('12') slabs/proc (min max mean):      6     7     6
         Recip-space ('23') slabs/proc (min max mean):      1     2     1
********************************************************************************

********************* Fourier parallelisation information **********************
         Fine grid (whole simulation cell) dimensions:    288   184   832
          Real-space ('12') slabs/proc (min max mean):      6     7     6
         Recip-space ('23') slabs/proc (min max mean):      1     2     1
         Grid scale modified to satisfy multigrid solver grid constraints
         Grid scale values after modifification:         2.01  2.02  2.00
********************************************************************************
ONETEP fine grid is 288 x 184 x 832 gridpoints, 64.5704 x 37.2798 x 189.0255 bohr.
FD multigrid is     288 x 184 x 832 gridpoints, 64.5704 x 37.2798 x 189.0255 bohr.


Atom SCF Calculation for Li : Z (AE atom) =   3 : Z (PS atom) =   3
Config String:
Orbitals (num,occ):  3     2.00 1.00 0.00
Orbitals   (num,l):  3        0    0    1
Real-space Grid (nr,dr,rmax): 1343    0.0059612519    8.0000000000
Spherical Bessel Basis (nsws,lmax,cutoff):   37    1  220.4959463253
Confining potential (l,width,scale):  0    3.0000000000  100.0000000000
Confining potential (l,width,scale):  1    3.0000000000  100.0000000000
  1         -3.7050169094   -5.2301177776    2.5388568852   -0.9989538802
  2         -6.0510920273   -4.2679357854    3.2724001845   -1.3422946715
  3         -6.7975021434   -3.8722499620    3.6648237887   -1.5325279919
  4         -7.0147472228   -3.7673066376    3.7864613280   -1.5966989055
  5         -7.0774132854   -3.7446783348    3.8157063634   -1.6161454686
  6         -7.0951992563   -3.7420177453    3.8204515040   -1.6217593843
  7         -7.1001226024   -3.7430426481    3.8200527077   -1.6233132433
  8         -7.1014239576   -3.7441529610    3.8191274553   -1.6237164860
  9         -7.1017352306   -3.7448434699    3.8184905098   -1.6238077213
 10         -7.1017916056   -3.7452114113    3.8181373932   -1.6238209669
 11         -7.1017908912   -3.7453946820    3.8179578223   -1.6238181917
 12         -7.1017822190   -3.7454828903    3.8178702968   -1.6238141227
 13         -7.1017768840   -3.7455162316    3.8178369316   -1.6238119017
 14         -7.1017732849   -3.7455353767    3.8178176959   -1.6238104459
 15         -7.1017709700   -3.7455463461    3.8178066371   -1.6238095253
 16         -7.1017695244   -3.7455526225    3.8178002910   -1.6238089565
 17         -7.1017686390   -3.7455562110    3.8177966534   -1.6238086105
 18         -7.1017681040   -3.7455582619    3.8177945697   -1.6238084022
 19         -7.1017677838   -3.7455594341    3.8177933764   -1.6238082778
 20         -7.1017675934   -3.7455601042    3.8177926929   -1.6238082039
 21         -7.1017674808   -3.7455604874    3.8177923014   -1.6238081602
 22         -7.1017674145   -3.7455607066    3.8177920771   -1.6238081344
Atom SCF converged after  22 iterations to a total energy of     -7.10176741

Atom SCF Calculation for C  : Z (AE atom) =   6 : Z (PS atom) =   4
Config String:
Orbitals (num,occ):  2     2.00 2.00
Orbitals   (num,l):  2        0    1
Real-space Grid (nr,dr,rmax): 1343    0.0059612519    8.0000000000
Spherical Bessel Basis (nsws,lmax,cutoff):   37    1  220.4959463253
Confining potential (l,width,scale):  0    3.0000000000  100.0000000000
Confining potential (l,width,scale):  1    3.0000000000  100.0000000000
  1         -5.8177092822   -1.2555419264    4.5135233515   -1.7471920893
  2         -5.6032261188   -1.3440047989    4.4246587726   -1.7090653419
  3         -5.5936068668   -1.3561735374    4.4140765627   -1.7034094417
  4         -5.5958505747   -1.3587284552    4.4121342699   -1.7022848669
  5         -5.5969687665   -1.3601698222    4.4109982405   -1.7017057890
  6         -5.5975400979   -1.3609792837    4.4103423276   -1.7013975981
  7         -5.5978435204   -1.3614297943    4.4099696476   -1.7012314972
  8         -5.5980096069   -1.3616786122    4.4097605138   -1.7011416075
  9         -5.5981021113   -1.3618152853    4.4096441572   -1.7010929151
 10         -5.5981539939   -1.3618900852    4.4095797860   -1.7010665406
 11         -5.5981831160   -1.3619309228    4.4095443105   -1.7010522599
 12         -5.5981994243   -1.3619531807    4.4095248124   -1.7010445305
 13         -5.5982085235   -1.3619652972    4.4095141175   -1.7010403487
 14         -5.5982135796   -1.3619718867    4.4095082606   -1.7010380870
 15         -5.5982163780   -1.3619754676    4.4095050573   -1.7010368642
 16         -5.5982179208   -1.3619774123    4.4095033073   -1.7010362032
 17         -5.5982187685   -1.3619784678    4.4095023522   -1.7010358460
 18         -5.5982192328   -1.3619790404    4.4095018314   -1.7010356530
 19         -5.5982194864   -1.3619793509    4.4095015476   -1.7010355488
 20         -5.5982196245   -1.3619795192    4.4095013931   -1.7010354925
 21         -5.5982196995   -1.3619796104    4.4095013090   -1.7010354621
Atom SCF converged after  21 iterations to a total energy of     -5.59821970

BC: Task: GEOMETRYOPTIMIZATION
BC: +++++++++++++++ Summary of boundary conditions ++++++++++++++
BC: |       Component       |     Keyword     |   Periodicity   |
BC: |                       |                 |     X  Y  Z [1] |
BC: |-----------------------------------------------------------|
BC: | Ion-ion               | ion_ion_bc [2]  |     P  P  P     |
BC: | Local pseudopotential | pspot_bc [3]    |     P  P  P     |
BC: | Multigrid solver      | multigrid_bc    |     P  P  P     |
BC: | Smeared ions          | smeared_ion_bc  |     P  P  P     |
BC: | Van der Waals         | vdw_bc          |     P  P  P     |
BC: +++++++++++++++++++++++++++++++++++++++++++++++++++++++++++++
BC: P: Periodic, O: Open.
BC: [1] Not strictly along X, Y, Z but rather along lattice vectors A1, A2, A3.
BC: [2] Also affected by: pbc_correction_cutoff, cutoff_coulomb_type,
BC:     is_smeared_ion_rep, is_implicit_solvent, openbc_ion_ion.
BC: [3] Also affected by: is_smeared_ion_rep, is_implicit_solvent, openbc_pspot.

================================================================================
<<<<<<<<<<<<<<<<<<<< Starting ONETEP Geometry Optimisation >>>>>>>>>>>>>>>>>>>>>
================================================================================

 Geometry Optimisation: output file is "graphite.geom"
 
 
                           -------------------------------
                                     Cell Contents
                           -------------------------------
 
            xxxxxxxxxxxxxxxxxxxxxxxxxxxxxxxxxxxxxxxxxxxxxxxxxxxxxxxxxxxx
            x  Element    Atom      Absolute co-ordinates of atoms     x
            x            Number        x           y           z       x
            x----------------------------------------------------------x
            x    Li        1        0.083484   37.197457   16.360026   x
            x    Li        2        0.083484   27.877517   16.360026   x
            x    Li        3        0.083484   18.557577   16.360026   x
            x    Li        4        0.083484    9.237636   16.360026   x
            x    Li        5        8.154789   32.537487   16.360026   x
            x    Li        6        8.154789   23.217547   16.360026   x
            x    Li        7        8.154789   13.897606   16.360026   x
            x    Li        8        8.154789    4.577666   16.360026   x
            x    Li        9       16.226094    9.237636   16.360026   x
            x    Li       10       16.226094   18.557577   16.360026   x
            x    Li       11       16.226094   27.877517   16.360026   x
            x    Li       12       16.226094   37.197457   16.360026   x
            x    Li       13       24.297399   32.537487   16.360026   x
            x    Li       14       24.297399   23.217547   16.360026   x
            x    Li       15       24.297399   13.897606   16.360026   x
            x    Li       16       24.297399    4.577666   16.360026   x
            x    Li       17       32.368704   37.197457   16.360026   x
            x    Li       18       32.368704   27.877517   16.360026   x
            x    Li       19       32.368704   18.557577   16.360026   x
            x    Li       20       32.368704    9.237636   16.360026   x
            x    Li       21       40.440009   32.537487   16.360026   x
            x    Li       22       40.440009   23.217547   16.360026   x
            x    Li       23       40.440009   13.897606   16.360026   x
            x    Li       24       40.440009    4.577666   16.360026   x
            x    Li       25       48.511314   37.197457   16.360026   x
            x    Li       26       48.511314   27.877517   16.360026   x
            x    Li       27       48.511314   18.557577   16.360026   x
            x    Li       28       48.511314    9.237636   16.360026   x
            x    Li       29       56.582619   32.537487   16.360026   x
            x    Li       30       56.582619   23.217547   16.360026   x
            x    Li       31       56.582619   13.897606   16.360026   x
            x    Li       32       56.582619    4.577666   16.360026   x
            x    C        33       41.775102    2.198643    6.274469   x
            x    C        34       49.846604    2.198785    6.275671   x
            x    C        35       57.918061    2.198619    6.275979   x
            x    C        36       12.185421    2.198114    6.274834   x
            x    C        37       20.257080    2.198107    6.275219   x
            x    C        38        4.114115    2.198439    6.274424   x
            x    C        39       28.328304    2.198237    6.274380   x
            x    C        40       36.399396    2.198541    6.273619   x
            x    C        41       44.470757    2.198727    6.274208   x
            x    C        42       52.542289    2.198842    6.275423   x
            x    C        43       60.613567    2.198577    6.275125   x
            x    C        44        1.418600    2.198368    6.275181   x
            x    C        45        9.489785    2.198254    6.275070   x
            x    C        46       17.561380    2.198069    6.275832   x
            x    C        47       25.632805    2.198245    6.275393   x
            x    C        48       33.703823    2.198424    6.274316   x
            x    C        49       29.668379    4.528330    6.274505   x
            x    C        50       37.739543    4.528513    6.273775   x
            x    C        51       45.810860    4.528672    6.274701   x
            x    C        52        8.149680    4.528256    6.274838   x
            x    C        53       53.882362    4.528702    6.276036   x
            x    C        54        0.078618    4.528443    6.275085   x
            x    C        55       16.221315    4.528164    6.275225   x
            x    C        56       24.292908    4.528184    6.274804   x
            x    C        57       32.363971    4.528428    6.273498   x
            x    C        58       40.435160    4.528532    6.273278   x
            x    C        59       48.506592    4.528721    6.274649   x
            x    C        60       56.577973    4.528564    6.275435   x
            x    C        61       61.953502    4.528511    6.275860   x
            x    C        62        5.454094    4.528370    6.275489   x
            x    C        63       13.525490    4.528203    6.275811   x
            x    C        64       21.597281    4.528150    6.275684   x
            x    C        65       25.632831    6.858256    6.275057   x
            x    C        66       33.703940    6.858419    6.273704   x
            x    C        67        4.114006    6.858377    6.275302   x
            x    C        68       41.775134    6.858451    6.273775   x
            x    C        69       49.846616    6.858578    6.275270   x
            x    C        70       12.185330    6.858341    6.275061   x
            x    C        71       20.257131    6.858298    6.274802   x
            x    C        72       28.328404    6.858370    6.274048   x
            x    C        73       36.399483    6.858425    6.272980   x
            x    C        74       44.470855    6.858561    6.273602   x
            x    C        75       52.542233    6.858547    6.275130   x
            x    C        76       57.917914    6.858474    6.276085   x
            x    C        77        1.418523    6.858461    6.275901   x
            x    C        78        9.489572    6.858323    6.275718   x
            x    C        79       60.613489    6.858504    6.275463   x
            x    C        80       17.561380    6.858283    6.275280   x
            x    C        81        0.078554    9.188410    6.275401   x
            x    C        82       21.597226    9.188451    6.275053   x
            x    C        83       29.668432    9.188427    6.274329   x
            x    C        84       37.739549    9.188402    6.273452   x
            x    C        85       45.810966    9.188423    6.274299   x
            x    C        86        8.149559    9.188495    6.275223   x
            x    C        87       16.221247    9.188421    6.274029   x
            x    C        88       24.292902    9.188404    6.274458   x
            x    C        89       32.363928    9.188342    6.273226   x
            x    C        90       40.435201    9.188427    6.272953   x
            x    C        91       48.506600    9.188385    6.274218   x
            x    C        92       53.882338    9.188408    6.275811   x
            x    C        93       56.577949    9.188465    6.275442   x
            x    C        94       61.953543    9.188412    6.276087   x
            x    C        95        5.453975    9.188459    6.276064   x
            x    C        96       13.525509    9.188485    6.275068   x
            x    C        97       17.561331   11.518574    6.274322   x
            x    C        98       25.632848   11.518501    6.274858   x
            x    C        99       33.703901   11.518332    6.273747   x
            x    C       100       41.775208   11.518370    6.273670   x
            x    C       101       60.613480   11.518342    6.275440   x
            x    C       102        4.114000   11.518523    6.275440   x
            x    C       103       12.185311   11.518605    6.274501   x
            x    C       104       20.257139   11.518625    6.274051   x
            x    C       105       28.328410   11.518468    6.273989   x
            x    C       106       36.399546   11.518425    6.272965   x
            x    C       107       44.470836   11.518317    6.273441   x
            x    C       108       49.846550   11.518255    6.275083   x
            x    C       109       52.542263   11.518315    6.274994   x
            x    C       110       57.917925   11.518387    6.276047   x
            x    C       111        1.418447   11.518400    6.275985   x
            x    C       112        9.489598   11.518589    6.275569   x
            x    C       113       13.525486   13.848695    6.274777   x
            x    C       114       21.597260   13.848686    6.274913   x
            x    C       115       29.668396   13.848457    6.274547   x
            x    C       116       37.739590   13.848335    6.273736   x
            x    C       117       56.577956   13.848212    6.275299   x
            x    C       118        0.078594   13.848384    6.275089   x
            x    C       119        8.149633   13.848573    6.274943   x
            x    C       120       16.221267   13.848752    6.273881   x
            x    C       121       24.292875   13.848556    6.274492   x
            x    C       122       32.363981   13.848395    6.273537   x
            x    C       123       40.435181   13.848227    6.273186   x
            x    C       124       48.506605   13.848149    6.274308   x
            x    C       125       45.810892   13.848140    6.274410   x
            x    C       126       53.882366   13.848172    6.275765   x
            x    C       127       61.953500   13.848318    6.275807   x
            x    C       128        5.454082   13.848527    6.275741   x
            x    C       129        9.489730   16.178609    6.275197   x
            x    C       130       17.561367   16.178811    6.274889   x
            x    C       131       25.632735   16.178573    6.275472   x
            x    C       132       33.703863   16.178382    6.274303   x
            x    C       133       52.542320   16.178064    6.275096   x
            x    C       134       60.613584   16.178289    6.275011   x
            x    C       135        4.114089   16.178473    6.274654   x
            x    C       136       12.185379   16.178783    6.274410   x
            x    C       137       20.257067   16.178760    6.274586   x
            x    C       138       44.470783   16.178131    6.273993   x
            x    C       139       28.328308   16.178529    6.274509   x
            x    C       140       36.399417   16.178299    6.273532   x
            x    C       141       41.775138   16.178174    6.274282   x
            x    C       142       49.846659   16.178036    6.275369   x
            x    C       143       57.918024   16.178138    6.275780   x
            x    C       144        1.418599   16.178405    6.275229   x
            x    C       145       13.525632   18.508754    6.275040   x
            x    C       146       21.597123   18.508758    6.275894   x
            x    C       147       29.668354   18.508446    6.275231   x
            x    C       148       48.506588   18.507925    6.274849   x
            x    C       149       56.578102   18.508099    6.275098   x
            x    C       150        0.078700   18.508301    6.274206   x
            x    C       151        8.149811   18.508615    6.274238   x
            x    C       152       40.435063   18.508227    6.273964   x
            x    C       153       16.221286   18.508762    6.274630   x
            x    C       154       24.292768   18.508643    6.275319   x
            x    C       155       32.363877   18.508356    6.274238   x
            x    C       156       37.739418   18.508250    6.274475   x
            x    C       157       45.810892   18.508076    6.275155   x
            x    C       158       53.882430   18.508014    6.275807   x
            x    C       159       61.953668   18.508261    6.275108   x
            x    C       160        5.454203   18.508497    6.274726   x
            x    C       161        9.489902   20.838535    6.274450   x
            x    C       162       17.561304   20.838666    6.275654   x
            x    C       163       25.632670   20.838549    6.275977   x
            x    C       164       44.470664   20.837976    6.274841   x
            x    C       165       52.542407   20.838010    6.275219   x
            x    C       166       36.399321   20.838263    6.274433   x
            x    C       167       60.613701   20.838159    6.274375   x
            x    C       168        4.114259   20.838420    6.273598   x
            x    C       169       12.185527   20.838622    6.274191   x
            x    C       170       20.256985   20.838706    6.275414   x
            x    C       171       28.328223   20.838401    6.275121   x
            x    C       172       33.703719   20.838282    6.275187   x
            x    C       173       41.774978   20.838118    6.275078   x
            x    C       174       49.846610   20.837889    6.275832   x
            x    C       175       57.918148   20.838072    6.275382   x
            x    C       176        1.418682   20.838282    6.274308   x
            x    C       177       61.953745   23.168222    6.274499   x
            x    C       178        5.454413   23.168398    6.273781   x
            x    C       179       13.525651   23.168547    6.274701   x
            x    C       180       40.434848   23.168152    6.274838   x
            x    C       181       21.597083   23.168553    6.276047   x
            x    C       182       32.363714   23.168352    6.275081   x
            x    C       183       48.506573   23.168022    6.275246   x
            x    C       184       56.578230   23.168037    6.274775   x
            x    C       185        0.078813   23.168281    6.273494   x
            x    C       186        8.149937   23.168398    6.273271   x
            x    C       187       16.221288   23.168604    6.274652   x
            x    C       188       24.292620   23.168458    6.275437   x
            x    C       189       29.668173   23.168360    6.275833   x
            x    C       190       37.739273   23.168231    6.275503   x
            x    C       191       45.810758   23.168097    6.275805   x
            x    C       192       53.882625   23.168059    6.275671   x
            x    C       193       57.918184   25.498141    6.275055   x
            x    C       194        1.418799   25.498279    6.273709   x
            x    C       195       36.399179   25.498283    6.275314   x
            x    C       196        9.489961   25.498356    6.273768   x
            x    C       197       17.561336   25.498473    6.275253   x
            x    C       198       44.470574   25.498245    6.275076   x
            x    C       199       52.542425   25.498141    6.274798   x
            x    C       200       60.613775   25.498237    6.274044   x
            x    C       201        4.114327   25.498320    6.272963   x
            x    C       202       12.185595   25.498468    6.273596   x
            x    C       203       20.256933   25.498396    6.275138   x
            x    C       204       25.632548   25.498349    6.276085   x
            x    C       205       33.703664   25.498300    6.275901   x
            x    C       206       41.774760   25.498228    6.275735   x
            x    C       207       28.328127   25.498385    6.275472   x
            x    C       208       49.846640   25.498190    6.275289   x
            x    C       209       32.363720   27.828249    6.275399   x
            x    C       210       53.882494   27.828296    6.275036   x
            x    C       211       61.953760   27.828266    6.274342   x
            x    C       212        5.454368   27.828281    6.273450   x
            x    C       213       13.525705   27.828313    6.274305   x
            x    C       214       40.434793   27.828355    6.275225   x
            x    C       215       48.506530   27.828300    6.274031   x
            x    C       216       56.578270   27.828311    6.274441   x
            x    C       217        0.078832   27.828266    6.273235   x
            x    C       218        8.150022   27.828324    6.272952   x
            x    C       219       16.221347   27.828268    6.274208   x
            x    C       220       21.596998   27.828332    6.275822   x
            x    C       221       24.292624   27.828309    6.275454   x
            x    C       222       29.668179   27.828317    6.276083   x
            x    C       223       37.739125   27.828336    6.276070   x
            x    C       224       45.810709   27.828345    6.275061   x
            x    C       225       49.846625   30.158478    6.274324   x
            x    C       226       57.918235   30.158430    6.274870   x
            x    C       227        1.418780   30.158249    6.273749   x
            x    C       228        9.490016   30.158236    6.273666   x
            x    C       229       28.328095   30.158262    6.275452   x
            x    C       230       36.399138   30.158425    6.275448   x
            x    C       231       44.470542   30.158495    6.274526   x
            x    C       232       52.542437   30.158491    6.274048   x
            x    C       233       60.613765   30.158292    6.274004   x
            x    C       234        4.114331   30.158247    6.272955   x
            x    C       235       12.185591   30.158172    6.273435   x
            x    C       236       17.561331   30.158083    6.275081   x
            x    C       237       20.256942   30.158226    6.275004   x
            x    C       238       25.632578   30.158207    6.276068   x
            x    C       239       33.703591   30.158264    6.275988   x
            x    C       240       41.774806   30.158478    6.275593   x
            x    C       241       45.810718   32.488582    6.274790   x
            x    C       242       53.882581   32.488574    6.274936   x
            x    C       243       61.953740   32.488295    6.274560   x
            x    C       244        5.454420   32.488187    6.273726   x
            x    C       245       24.292617   32.488049    6.275319   x
            x    C       246       32.363709   32.488274    6.275113   x
            x    C       247       40.434833   32.488461    6.274953   x
            x    C       248       48.506560   32.488652    6.273878   x
            x    C       249       56.578204   32.488453    6.274475   x
            x    C       250        0.078824   32.488334    6.273526   x
            x    C       251        8.149967   32.488149    6.273171   x
            x    C       252       16.221334   32.488004    6.274301   x
            x    C       253       13.525675   32.488062    6.274405   x
            x    C       254       21.597092   32.488107    6.275758   x
            x    C       255       29.668179   32.488221    6.275792   x
            x    C       256       37.739229   32.488429    6.275746   x
            x    C       257       41.774900   34.818480    6.275195   x
            x    C       258       49.846622   34.818684    6.274875   x
            x    C       259       57.918095   34.818442    6.275474   x
            x    C       260        1.418736   34.818247    6.274278   x
            x    C       261       20.257010   34.817930    6.275083   x
            x    C       262       28.328225   34.818157    6.275021   x
            x    C       263       36.399264   34.818346    6.274649   x
            x    C       264       44.470638   34.818659    6.274405   x
            x    C       265       52.542403   34.818641    6.274577   x
            x    C       266       12.185595   34.818007    6.273974   x
            x    C       267       60.613701   34.818423    6.274520   x
            x    C       268        4.114314   34.818181    6.273507   x
            x    C       269        9.489893   34.818053    6.274269   x
            x    C       270       17.561327   34.817913    6.275340   x
            x    C       271       25.632635   34.818030    6.275796   x
            x    C       272       33.703696   34.818283    6.275223   x
            x    C       273       45.810879   37.148620    6.275055   x
            x    C       274       53.882453   37.148633    6.275903   x
            x    C       275       61.953708   37.148371    6.275253   x
            x    C       276       16.221315   37.147826    6.274853   x
            x    C       277       24.292754   37.148019    6.275129   x
            x    C       278       32.363814   37.148182    6.274212   x
            x    C       279       40.434995   37.148484    6.274252   x
            x    C       280        8.149846   37.148059    6.273957   x
            x    C       281       48.506581   37.148622    6.274620   x
            x    C       282       56.578087   37.148495    6.275301   x
            x    C       283        0.078715   37.148185    6.274237   x
            x    C       284        5.454254   37.148151    6.274471   x
            x    C       285       13.525673   37.147909    6.275159   x
            x    C       286       21.597157   37.147838    6.275809   x
            x    C       287       29.668343   37.148117    6.275091   x
            x    C       288       37.739346   37.148350    6.274720   x
            x    C       289       18.911419    9.189717   12.645259   x
            x    C       290       13.529241    9.190139   12.646482   x
            x    C       291       14.870455   11.523280   12.637838   x
            x    C       292       17.569428   11.522709   12.634949   x
            x    C       293       51.196685   27.829562   12.645248   x
            x    C       294       45.814500   27.830002   12.646482   x
            x    C       295       47.155716   30.163158   12.637857   x
            x    C       296       49.854691   30.162559   12.634947   x
            x    C       297       14.870843    6.856905   12.656564   x
            x    C       298       17.569789    6.856818   12.653876   x
            x    C       299       21.609663   13.853664   12.663176   x
            x    C       300       18.911158   13.855531   12.652418   x
            x    C       301       13.528636   13.856081   12.655090   x
            x    C       302       14.870916   16.187897   12.662184   x
            x    C       303       17.568523   16.187436   12.659769   x
            x    C       304       47.156111   25.496837   12.656571   x
            x    C       305       49.855044   25.496712   12.653884   x
            x    C       306       53.894957   32.493571   12.663181   x
            x    C       307       51.196449   32.495424   12.652419   x
            x    C       308       45.813904   32.495967   12.655076   x
            x    C       309       47.156152   34.827794   12.662178   x
            x    C       310       49.853855   34.827324   12.659767   x
            x    C       311       14.871559    2.191825   12.681780   x
            x    C       312       17.568982    2.191691   12.679599   x
            x    C       313       22.948549    2.194114   12.677957   x
            x    C       314        9.492389    2.194290   12.679599   x
            x    C       315       63.300680    2.198530   12.675030   x
            x    C       316        6.797481    2.195820   12.678224   x
            x    C       317       31.016391    2.197906   12.676043   x
            x    C       318        1.424542    2.197549   12.674628   x
            x    C       319       25.643476    2.195875   12.676432   x
            x    C       320       33.710592    2.199097   12.675899   x
            x    C       321       39.084333    2.201204   12.679278   x
            x    C       322       55.230916    2.201805   12.677290   x
            x    C       323       57.926425    2.200339   12.675752   x
            x    C       324       47.156954    2.205070   12.677901   x
            x    C       325       41.779683    2.202844   12.679356   x
            x    C       326       49.853398    2.204706   12.676264   x
            x    C       327       18.911455    4.523462   12.674807   x
            x    C       328       13.529449    4.523868   12.676959   x
            x    C       329       10.831101    4.524696   12.679342   x
            x    C       330       26.984012    4.526416   12.677935   x
            x    C       331        5.457246    4.526497   12.677199   x
            x    C       332       21.609846    4.524448   12.675678   x
            x    C       333       59.265720    4.529485   12.674601   x
            x    C       334        2.762986    4.527344   12.676222   x
            x    C       335       35.050712    4.529195   12.677150   x
            x    C       336       61.960598    4.528598   12.673582   x
            x    C       337       29.678147    4.527610   12.676447   x
            x    C       338       43.120854    4.531892   12.679276   x
            x    C       339       51.194055    4.532597   12.677798   x
            x    C       340       37.745490    4.530273   12.677165   x
            x    C       341       53.889993    4.531148   12.675926   x
            x    C       342       45.816590    4.532998   12.678481   x
            x    C       343       22.950858    6.855981   12.674210   x
            x    C       344       63.299614    6.858277   12.674437   x
            x    C       345        6.795041    6.857168   12.678059   x
            x    C       346       31.017396    6.858117   12.677625   x
            x    C       347       39.085740    6.859670   12.677815   x
            x    C       348       57.925361    6.859029   12.673428   x
            x    C       349        1.423720    6.857952   12.675030   x
            x    C       350        9.490137    6.856410   12.675087   x
            x    C       351       25.645982    6.856909   12.677029   x
            x    C       352       33.711826    6.858719   12.676438   x
            x    C       353       55.229945    6.859812   12.674809   x
            x    C       354       47.157451    6.861144   12.677530   x
            x    C       355       41.781030    6.860373   12.677209   x
            x    C       356       49.853415    6.861021   12.676092   x
            x    C       357       51.193957    9.189145   12.674920   x
            x    C       358       59.265109    9.188362   12.674047   x
            x    C       359        2.762500    9.188500   12.676757   x
            x    C       360       26.984416    9.188587   12.678435   x
            x    C       361       35.051489    9.188567   12.677349   x
            x    C       362       43.121424    9.189162   12.677107   x
            x    C       363       53.889717    9.188822   12.673552   x
            x    C       364       61.960053    9.188281   12.673547   x
            x    C       365        5.456677    9.188886   12.676644   x
            x    C       366       21.610286    9.189054   12.663847   x
            x    C       367       29.678621    9.188468   12.677814   x
            x    C       368       37.746265    9.188788   12.676761   x
            x    C       369       45.817179    9.189356   12.675674   x
            x    C       370       10.830285    9.189757   12.666282   x
            x    C       371       47.157570   11.517533   12.675482   x
            x    C       372       55.229854   11.517699   12.674008   x
            x    C       373       63.299363   11.518319   12.674688   x
            x    C       374       31.017566   11.518737   12.677974   x
            x    C       375       39.086062   11.518058   12.677396   x
            x    C       376       49.853466   11.517439   12.674045   x
            x    C       377       57.925295   11.517852   12.673429   x
            x    C       378        1.423404   11.518797   12.675253   x
            x    C       379       33.712064   11.518353   12.676483   x
            x    C       380       41.781329   11.518002   12.676213   x
            x    C       381        6.794586   11.520953   12.675663   x
            x    C       382       22.950779   11.521885   12.667908   x
            x    C       383       25.646031   11.520390   12.675538   x
            x    C       384        9.489732   11.522703   12.668227   x
            x    C       385       45.817019   13.845834   12.675448   x
            x    C       386       43.121298   13.846643   12.676642   x
            x    C       387       51.194112   13.845782   12.675119   x
            x    C       388       59.265444   13.847382   12.673977   x
            x    C       389       35.051268   13.847862   12.676867   x
            x    C       390       53.889959   13.846621   12.673764   x
            x    C       391       61.960242   13.847919   12.673488   x
            x    C       392       29.678385   13.849243   12.677370   x
            x    C       393       37.746055   13.847458   12.676173   x
            x    C       394        2.762396   13.849627   12.677109   x
            x    C       395       26.984135   13.850661   12.678014   x
            x    C       396        5.456565   13.851311   12.676765   x
            x    C       397       10.830262   13.854743   12.666581   x
            x    C       398       47.157345   16.173969   12.678050   x
            x    C       399       55.230833   16.175787   12.675315   x
            x    C       400       41.780437   16.175774   12.676799   x
            x    C       401       49.853733   16.174043   12.676774   x
            x    C       402       39.085153   16.176717   12.676893   x
            x    C       403       63.300130   16.178072   12.674796   x
            x    C       404       31.016880   16.178885   12.676865   x
            x    C       405       57.926176   16.176725   12.673668   x
            x    C       406       33.711231   16.177906   12.675586   x
            x    C       407        6.796557   16.182267   12.678367   x
            x    C       408        1.423933   16.179357   12.675775   x
            x    C       409       25.643523   16.181277   12.676636   x
            x    C       410       22.948526   16.183677   12.673233   x
            x    C       411        9.491333   16.184743   12.674544   x
            x    C       412       51.195124   18.502488   12.679208   x
            x    C       413       45.816085   18.502567   12.680070   x
            x    C       414       43.119818   18.504673   12.679938   x
            x    C       415       53.891401   18.504656   12.676770   x
            x    C       416       35.049894   18.507290   12.675843   x
            x    C       417       59.267114   18.506326   12.675208   x
            x    C       418       37.744441   18.506279   12.675948   x
            x    C       419       61.961701   18.507547   12.674208   x
            x    C       420       29.676792   18.509095   12.675591   x
            x    C       421        2.763885   18.509726   12.677453   x
            x    C       422       26.982071   18.510491   12.677368   x
            x    C       423        5.458296   18.511447   12.678314   x
            x    C       424       10.833775   18.514206   12.677797   x
            x    C       425       18.909633   18.516221   12.671819   x
            x    C       426       21.606029   18.513146   12.674318   x
            x    C       427       13.530076   18.516827   12.673084   x
            x    C       428       47.156765   20.831657   12.681776   x
            x    C       429       49.854254   20.831604   12.679590   x
            x    C       430       55.233813   20.833942   12.677969   x
            x    C       431       41.777627   20.834142   12.679590   x
            x    C       432       31.015325   20.838450   12.675021   x
            x    C       433       39.082660   20.835718   12.678235   x
            x    C       434       63.301704   20.837742   12.676064   x
            x    C       435       33.709728   20.837385   12.674641   x
            x    C       436       57.928848   20.835803   12.676423   x
            x    C       437        1.425460   20.839000   12.675903   x
            x    C       438        6.799165   20.841090   12.679289   x
            x    C       439       22.945580   20.841740   12.677281   x
            x    C       440       25.641104   20.840174   12.675788   x
            x    C       441       14.871702   20.844985   12.677908   x
            x    C       442        9.494485   20.842738   12.679363   x
            x    C       443       17.568115   20.844583   12.676268   x
            x    C       444       51.196748   23.163384   12.674798   x
            x    C       445       45.814668   23.163764   12.676927   x
            x    C       446       43.116362   23.164592   12.679342   x
            x    C       447       59.269422   23.166323   12.677935   x
            x    C       448       37.742404   23.166398   12.677184   x
            x    C       449       53.895133   23.164314   12.675676   x
            x    C       450       26.980368   23.169309   12.674605   x
            x    C       451       35.048135   23.167209   12.676222   x
            x    C       452        2.765607   23.169070   12.677154   x
            x    C       453       29.675207   23.168507   12.673581   x
            x    C       454       61.963500   23.167440   12.676438   x
            x    C       455       10.835673   23.171769   12.679286   x
            x    C       456       18.908791   23.172449   12.677802   x
            x    C       457        5.460279   23.170121   12.677182   x
            x    C       458       21.604638   23.171036   12.675914   x
            x    C       459       13.531335   23.172890   12.678481   x
            x    C       460       55.236145   25.495890   12.674219   x
            x    C       461       31.014295   25.498128   12.674435   x
            x    C       462       39.080202   25.497058   12.678074   x
            x    C       463       63.302724   25.497978   12.677630   x
            x    C       464        6.800591   25.499556   12.677817   x
            x    C       465       25.640023   25.498889   12.673433   x
            x    C       466       33.708876   25.497861   12.675024   x
            x    C       467       41.775363   25.496329   12.675090   x
            x    C       468       57.931325   25.496761   12.677022   x
            x    C       469        1.426681   25.498610   12.676440   x
            x    C       470       22.944647   25.499687   12.674788   x
            x    C       471       14.872216   25.501055   12.677532   x
            x    C       472        9.495806   25.500280   12.677203   x
            x    C       473       17.568141   25.500887   12.676092   x
            x    C       474       18.908645   27.829046   12.674922   x
            x    C       475       26.979690   27.828281   12.674042   x
            x    C       476       35.047624   27.828377   12.676757   x
            x    C       477       59.269773   27.828404   12.678443   x
            x    C       478        2.766340   27.828430   12.677347   x
            x    C       479       10.836198   27.829044   12.677120   x
            x    C       480       21.604428   27.828672   12.673560   x
            x    C       481       29.674717   27.828115   12.673547   x
            x    C       482       37.741899   27.828738   12.676631   x
            x    C       483       53.895621   27.828937   12.663858   x
            x    C       484       61.964027   27.828379   12.677808   x
            x    C       485        5.461110   27.828685   12.676776   x
            x    C       486       13.531970   27.829224   12.675674   x
            x    C       487       43.115498   27.829600   12.666279   x
            x    C       488       14.872366   30.157376   12.675467   x
            x    C       489       22.944577   30.157535   12.673985   x
            x    C       490       31.014053   30.158160   12.674677   x
            x    C       491       63.302930   30.158648   12.677972   x
            x    C       492        6.800884   30.157932   12.677385   x
            x    C       493       17.568172   30.157312   12.674047   x
            x    C       494       25.639914   30.157780   12.673437   x
            x    C       495       33.708534   30.158723   12.675257   x
            x    C       496        1.426879   30.158189   12.676481   x
            x    C       497        9.496101   30.157843   12.676219   x
            x    C       498       39.079773   30.160836   12.675665   x
            x    C       499       55.236103   30.161815   12.667910   x
            x    C       500       57.931354   30.160222   12.675516   x
            x    C       501       41.774953   30.162595   12.668212   x
            x    C       502       13.531766   32.485706   12.675450   x
            x    C       503       10.836086   32.486552   12.676650   x
            x    C       504       18.908855   32.485706   12.675115   x
            x    C       505       26.980100   32.487295   12.673964   x
            x    C       506        2.766109   32.487720   12.676873   x
            x    C       507       21.604651   32.486467   12.673771   x
            x    C       508       29.674885   32.487773   12.673496   x
            x    C       509       61.963714   32.489158   12.677371   x
            x    C       510        5.460859   32.487382   12.676173   x
            x    C       511       35.047553   32.489519   12.677113   x
            x    C       512       59.269501   32.490511   12.678003   x
            x    C       513       37.741731   32.491216   12.676765   x
            x    C       514       43.115464   32.494621   12.666568   x
            x    C       515       14.872063   34.813863   12.678048   x
            x    C       516       22.945487   34.815670   12.675325   x
            x    C       517        9.495258   34.815672   12.676804   x
            x    C       518       17.568457   34.813918   12.676795   x
            x    C       519        6.799953   34.816594   12.676916   x
            x    C       520       31.014782   34.817962   12.674792   x
            x    C       521       63.302192   34.818744   12.676865   x
            x    C       522       25.640853   34.816585   12.673673   x
            x    C       523        1.426123   34.817794   12.675591   x
            x    C       524       39.081702   34.822148   12.678371   x
            x    C       525       33.709077   34.819238   12.675752   x
            x    C       526       57.928901   34.821161   12.676644   x
            x    C       527       55.233830   34.823563   12.673240   x
            x    C       528       41.776586   34.824640   12.674533   x
            x    C       529       18.909877   37.142312   12.679201   x
            x    C       530       13.530836   37.142454   12.680074   x
            x    C       531       10.834607   37.144538   12.679940   x
            x    C       532       21.606099   37.144565   12.676780   x
            x    C       533        2.764739   37.147197   12.675854   x
            x    C       534       26.981767   37.146165   12.675204   x
            x    C       535        5.459222   37.146118   12.675941   x
            x    C       536       29.676325   37.147467   12.674206   x
            x    C       537       61.962115   37.148937   12.675586   x
            x    C       538       35.049045   37.149582   12.677447   x
            x    C       539       59.267443   37.150417   12.677352   x
            x    C       540       37.743460   37.151305   12.678299   x
            x    C       541       43.118973   37.154087   12.677783   x
            x    C       542       51.194934   37.156090   12.671827   x
            x    C       543       53.891316   37.153012   12.674319   x
            x    C       544       45.815348   37.156702   12.673072   x
            xxxxxxxxxxxxxxxxxxxxxxxxxxxxxxxxxxxxxxxxxxxxxxxxxxxxxxxxxxxx
 

Determining parallel strategy ...
... using space-filling curve
... NGWF load balancing: max     20;  min     16;  average     17
... Projector load balancing: max      5;  min      4;  average      5
... done
Calculating Ewald energy ...
              Ewald: real-space energy =        30624.610655
        Ewald: reciprocal-space energy =       136926.728941
         Ewald: (sum_charge)**2 energy =         3660.531818
         Ewald: (sum_charge**2) energy =          315.006795
                          Ewald energy =       163575.800983
======================= Empirical dispersion information =======================
Model : Grimme D2
Dispersion Correction Energy: -0.20687483E+01 Hartree
================================================================================
Basis initialisation ...... NGWF spheres initialised
... Projector spheres initialised
... NGWF tight boxes initialised
... Tight-boxes gathered
... NGWF basis size (local,global):        271151     34797224
... Nonlocal pseudopotential projector initialisation
... done

========================== Sparse matrix information ===========================
                        Overlap matrix filling:  29.30%
                        Density kernel filling: 100.00% (known to be dense)
              NGWF-Proj overlap matrix filling:   6.85%
                    Hamiltonian matrix filling:  30.31%
                  NGWF diagonal matrix filling:   0.18%
                             KS matrix filling: 100.00% 
                           KSKS matrix filling: 100.00% 
================================================================================

Sparse matrix initialisation ... done

Generating smeared ion density ... done
Smeared ion self correction:     -4228.788172
Smeared ion non-self correction: -163592.591590
IS: Initialising Boltzmann terms in implicit solvation...
----------------------------------------------------------
|           Boltzmann ions in implicit solvent:          |
+--------------------------------------------------------+
|       Name | Charge |  Conc. (mol/L)  |  Conc. (a.u.)  |
|         Li |  1.000 |    0.10000E+01  |   0.89239E-04  |
|        PF6 | -1.000 |    0.10000E+01  |   0.89239E-04  |
----------------------------------------------------------

IS: Generating smoothed hard-core steric potential ...
IS: - smearing:        0.40000E+00 bohr.
---------------------------------------------------------------
|      Atomic hard-core steric potential radial cut-offs      |
+-------------------------------------------------------------+
|   Species |   Symbol |            Radial cut-off (bohr)     |
|           |          |     solute      solvent        total |
|         1 |       Li |   3.558867 +   3.000000 =   6.558867 |
|         2 |        C |   3.308495 +   3.000000 =   6.308495 |
---------------------------------------------------------------

IS: Debye length is    6.18 bohr. PB equation variant: FULL. Use_fas: F.
IS: Exp_cap:   50.00. Steric pot: SMOOTHED SPHERES.
NGWF initialisation ... done
============ Calculation of NGWF S^-1 using Hotelling algorithm ================ 
         Iteration  |  Frobenius norm and Maximum abs value    (of I-S*S_n^-1)   
               1       0.45628591E+02     0.98391465E+00
               2       0.44529152E+02     0.96816113E+00
               3       0.42856652E+02     0.93757374E+00
               4       0.40651159E+02     0.87969807E+00
               5       0.37990371E+02     0.77592830E+00
               6       0.34889532E+02     0.69674200E+00
               7       0.31591275E+02     0.65389502E+00
               8       0.28385250E+02     0.61649132E+00
               9       0.25082025E+02     0.57421490E+00
              10       0.21111235E+02     0.50954323E+00
              11       0.16006238E+02     0.40655269E+00
              12       0.10015617E+02     0.26406623E+00
              13       0.45050794E+01     0.11724863E+00
              14       0.10881833E+01     0.25981574E-01
              15       0.73382239E-01     0.15471845E-02
              16       0.38911375E-03     0.68423581E-05
              17       0.14975439E-07     0.18264468E-09
              18       0.62344203E-13     0.38857806E-14
================================================================================
Calculating core density ... ... done

Generating solute cavity for implicit solvation ... done
MG DL_MG: Calling solver with defect correction order = 8
MG DL_MG: Solver finished
MG Fixed charge (1/2 \int rho_f phi dr) energy term:                 622.461120
MG Mobile charge (1/2 \int rho_m phi dr) energy term:                 -0.000001
MG Osmotic pressure (-kT \int dr \sum_i c_i(r)) energy term:          -0.067793
MG Mobile ion acc. corr. (\int dr \sum_i c_i(r) * V_steric(r)):        0.000205
MG Ion atmosph. rearr. (kT \int dr \sum_i c_i(r)*ln(c_i(r)/c^0):      -0.000204
MG Chemical potential (-\sum_i \mu_i \int dr c_i(r)) energy term:     -0.000000
MG                                                               --------------
MG Mean-field contribution to grand potential                        622.393327

MG Check from alternate expression:
MG Fixed charge (1/2 \int rho_f phi dr) energy term:                 622.461120
MG Minus mobile charge (-1/2 \int rho_m phi dr) energy term:           0.000001
MG -kTV\Gamma \sum_i c^bulk_i(r) (osmotic pressure) energy term:      -0.067793
MG                                                               --------------
MG Mean-field contribution to grand potential:                       622.393327

IS: MG box volume:     455016.600 a0^3. Accessible fraction: 0.884122. PBC.
IS: Charge neutralisation scheme: COUNTERIONS_AUTO.

+--------------------------- Chemical potential --------------------------+
|   # | Name | Bulk conc. |    mu_ideal   |   mu_excess   |    mu_total   |
|-------------------------------------------------------------------------|
|   1 |   Li |  1.0000085 |   0.000000008 |  -0.000000008 |   0.000000000 |
|   2 |  PF6 |  1.0000085 |   0.000000008 |  -0.000000008 |  -0.000000000 |
|-------------------------------------------------------------------------|

+----------------- Boltzmann ion concentration and charge -----------------+
|   # | Name | Bulk conc. | Average conc. | Neutr. ratio |    Total charge |
|--------------------------------------------------------------------------|
|   1 |   Li |  1.0000085 |   1.000008546 | -.601056E+09 |    35.900265210 | 
|   2 |  PF6 |  1.0000085 |   1.000008546 | 0.601056E+09 |   -35.900265211 | 
+--------------------------------------------------------------------------+
                                                    total:    -0.000000000*

+---- Concentration difference from bulk value on simcell faces (mol/L) ---+
|   # | Name | Face | Bulk conc. | Actual conc. |  Difference |  RMS diff. |
|--------------------------------------------------------------------------|
+         There are no fully electrolyte-accessible simcell faces.         +
+--------------------------------------------------------------------------+
Up spin density kernel initialisation ...... done
Down spin density kernel initialisation ...... done

Writing density kernel to file "graphite.dkn" ... done

>>> Optimising kernel for current NGWFs:

--------------------------- Ensemble-DFT optimisation --------------------------
Running ScaLAPACK on  128 processor(s).
(P)DSYGVX in subroutine dense_eigensolve returned info=    2
 ifail= 2*0
 iclustr= 1580,  1607
 gap= 1.9720502217700909E-5,  6.0066041266570758E-5
(P)DSYGVX in subroutine dense_eigensolve returned info=    2
 ifail= 2*0
 iclustr= 1580,  1607
 gap= 1.9720502217626038E-5,  6.00660412664291341E-5

Reusing previously generated solute cavity.
MG DL_MG: Calling solver with defect correction order = 8
MG DL_MG: ------------------------- SERIOUS WARNING: -------------------------
MG DL_MG: Could not achieve convergence to prescribed tolerance settings!
MG DL_MG: Computation failed to converge after the prescribed number of iterations.
MG DL_MG: Newton: error code: 16, n_iter:   300, sol_norm: 0.169E+04.
MG DL_MG: Newton: res_norm: 0.822E-04, target_res_norm: 0.275E-04.
MG DL_MG: DEFCO:  error code: 16, n_iter:     9, sol_norm: 0.171E+03.
MG DL_MG: DEFCO:  res_norm: 0.729E-06, target_res_norm: 0.107E+00.
MG DL_MG: DEFCO:  err_norm: 0.110E-03.
MG DL_MG: --------------------------------------------------------------------
MG DL_MG: Solver finished
MG Fixed charge (1/2 \int rho_f phi dr) energy term:                 598.786700
MG Mobile charge (1/2 \int rho_m phi dr) energy term:                 -0.226277
MG Osmotic pressure (-kT \int dr \sum_i c_i(r)) energy term:          -0.149594
MG Mobile ion acc. corr. (\int dr \sum_i c_i(r) * V_steric(r)):        0.143659
MG Ion atmosph. rearr. (kT \int dr \sum_i c_i(r)*ln(c_i(r)/c^0):       0.358419
MG Chemical potential (-\sum_i \mu_i \int dr c_i(r)) energy term:     -0.049552
MG                                                               --------------
MG Mean-field contribution to grand potential                        598.863355

MG Check from alternate expression:
MG Fixed charge (1/2 \int rho_f phi dr) energy term:                 598.786700
MG Minus mobile charge (-1/2 \int rho_m phi dr) energy term:           0.226277
MG -kTV\Gamma \sum_i c^bulk_i(r) (osmotic pressure) energy term:      -0.149536
MG                                                               --------------
MG Mean-field contribution to grand potential:                       598.863441

IS: MG box volume:     455016.600 a0^3. Accessible fraction: 0.884122. PBC.
IS: Charge neutralisation scheme: COUNTERIONS_AUTO.

+--------------------------- Chemical potential --------------------------+
|   # | Name | Bulk conc. |    mu_ideal   |   mu_excess   |    mu_total   |
|-------------------------------------------------------------------------|
|   1 |   Li |  3.7265745 |   0.001242065 |  -0.000788519 |   0.000453546 |
|   2 |  PF6 |  0.6850063 |  -0.000357211 |  -0.000096335 |  -0.000453546 |
|-------------------------------------------------------------------------|

+----------------- Boltzmann ion concentration and charge -----------------+
|   # | Name | Bulk conc. | Average conc. | Neutr. ratio |    Total charge |
|--------------------------------------------------------------------------|
|   1 |   Li |  3.7265745 |   3.728292677 |     0.896437 |   133.845552085 | 
|   2 |  PF6 |  0.6850063 |   0.685006391 |     0.103563 |   -24.591700953 | 
+--------------------------------------------------------------------------+
                                                    total:   109.253851132*

+---- Concentration difference from bulk value on simcell faces (mol/L) ---+
|   # | Name | Face | Bulk conc. | Actual conc. |  Difference |  RMS diff. |
|--------------------------------------------------------------------------|
+         There are no fully electrolyte-accessible simcell faces.         +
+--------------------------------------------------------------------------+

Reusing previously generated solute cavity.
MG DL_MG: Calling solver with defect correction order = 8
MG DL_MG: Solver finished
MG Fixed charge (1/2 \int rho_f phi dr) energy term:                 605.350899
MG Mobile charge (1/2 \int rho_m phi dr) energy term:                 -0.019286
MG Osmotic pressure (-kT \int dr \sum_i c_i(r)) energy term:          -0.081549
MG Mobile ion acc. corr. (\int dr \sum_i c_i(r) * V_steric(r)):        0.002480
MG Ion atmosph. rearr. (kT \int dr \sum_i c_i(r)*ln(c_i(r)/c^0):       0.036093
MG Chemical potential (-\sum_i \mu_i \int dr c_i(r)) energy term:     -0.000000
MG                                                               --------------
MG Mean-field contribution to grand potential                        605.288636

MG Check from alternate expression:
MG Fixed charge (1/2 \int rho_f phi dr) energy term:                 605.350899
MG Minus mobile charge (-1/2 \int rho_m phi dr) energy term:           0.019286
MG -kTV\Gamma \sum_i c^bulk_i(r) (osmotic pressure) energy term:      -0.081549
MG                                                               --------------
MG Mean-field contribution to grand potential:                       605.288637

IS: MG box volume:     455016.600 a0^3. Accessible fraction: 0.884122. PBC.
IS: Charge neutralisation scheme: COUNTERIONS_AUTO.

+--------------------------- Chemical potential --------------------------+
|   # | Name | Bulk conc. |    mu_ideal   |   mu_excess   |    mu_total   |
|-------------------------------------------------------------------------|
|   1 |   Li |  1.2029203 |   0.000174440 |  -0.000174887 |  -0.000000447 |
|   2 |  PF6 |  1.2029203 |   0.000174440 |  -0.000173993 |   0.000000447 |
|-------------------------------------------------------------------------|

+----------------- Boltzmann ion concentration and charge -----------------+
|   # | Name | Bulk conc. | Average conc. | Neutr. ratio |    Total charge |
|--------------------------------------------------------------------------|
|   1 |   Li |  1.2029203 |   1.202920991 | -.996003E+13 |    43.184813553 | 
|   2 |  PF6 |  1.2029203 |   1.202920998 | 0.996003E+13 |   -43.184813810 | 
+--------------------------------------------------------------------------+
                                                    total:    -0.000000258*

+---- Concentration difference from bulk value on simcell faces (mol/L) ---+
|   # | Name | Face | Bulk conc. | Actual conc. |  Difference |  RMS diff. |
|--------------------------------------------------------------------------|
+         There are no fully electrolyte-accessible simcell faces.         +
+--------------------------------------------------------------------------+

--------------------------------------------------------------------------------
  Iter                              Commutator    Grand pot.(L=E-TS-muN)  DeltaL
#    0                          0.000684565990   -2844.84109771723934  -2.84E+03

Step                       =       0.381966011250
Energy (E)                 =   -3192.935122156283
Entropy (-TS)              =      -0.160213133114
Chemical potential (-muN)  =     348.254237572157
Grand potential(L=E-TS-muN)=   -2844.841097717239
Est. 0K Energy 0.5*(E+L)   =   -3018.888109936761
Charge on quantum system   =    -109.192174208620
Residual Non-orthogonality =      -0.000000000000

Spin          Integrated_Ne            Fermi_level   Delta_Integrated_Ne
   1      1072.000000000000        -0.162432013793              0.00E+00
   2      1072.000000000000        -0.162432013793              0.00E+00

                           Spin 1           |                 Spin 2           |
     Orb |    H-eigenvalues     Occupancies |    H-eigenvalues     Occupancies |
       1 |    -1.8396241530    1.0000000000 |    -1.8396241530    1.0000000000 | 
                          ------                             ------
    1120 |    -0.1645635960    0.6410750086 |    -0.1645635960    0.6410750090 | 
    1121 |    -0.1641408122    0.6141967278 |    -0.1641408122    0.6141967282 | 
    1122 |    -0.1640931515    0.6111190574 |    -0.1640931515    0.6111190578 | 
    1123 |    -0.1628499922    0.5284038154 |    -0.1628499922    0.5284038158 | 
    1124 |    -0.1627382541    0.5208210118 |    -0.1627382541    0.5208210122 | 
[...]
 C   476 -- C   481       -0.07      0.00      5.39001
 C   361 -- C   367       -0.07      0.00      5.39012
 C   474 -- C   486       -0.07     -0.00      5.39065
 C   357 -- C   369       -0.07     -0.00      5.39088
 C   330 -- C   332       -0.07     -0.00      5.39117
 C   329 -- C   331       -0.07     -0.00      5.39134
 C   447 -- C   449       -0.07     -0.00      5.39142
 C   446 -- C   448       -0.07     -0.00      5.39156
 C   299 -- C   395       -0.07     -0.00      5.39157
 C   396 -- C   397       -0.07     -0.00      5.39165
 C   306 -- C   512       -0.07     -0.00      5.39173
 C   513 -- C   514       -0.07     -0.00      5.39190
 C   291 -- C   298       -0.07      0.00      5.39316
 C   295 -- C   305       -0.07      0.00      5.39326
 C   292 -- C   297       -0.07      0.00      5.39332
 C   296 -- C   304       -0.07      0.00      5.39337
 C   430 -- C   468       -0.07      0.00      5.39610
 C   313 -- C   351       -0.07      0.00      5.39613
 C   383 -- C   410       -0.07     -0.00      5.39614
 C   314 -- C   345       -0.07      0.00      5.39615
 C   431 -- C   462       -0.07      0.00      5.39621
 C   381 -- C   411       -0.07     -0.00      5.39622
 C   500 -- C   527       -0.07     -0.00      5.39623
 C   498 -- C   528       -0.07     -0.00      5.39625
 C   497 -- C   519       -0.07     -0.00      5.39662
 C   380 -- C   402       -0.07     -0.00      5.39666
 C   471 -- C   493       -0.07      0.00      5.39668
 C   372 -- C   405       -0.07     -0.00      5.39669
 C   489 -- C   522       -0.07     -0.00      5.39672
 C   317 -- C   525       -0.07     -0.00      5.39676
 C   408 -- C   434       -0.07     -0.00      5.39676
 C   354 -- C   376       -0.07      0.00      5.39676
 C   352 -- C   374       -0.07     -0.00      5.39677
 C   473 -- C   488       -0.07      0.00      5.39677
 C   469 -- C   491       -0.07     -0.00      5.39680
 C   356 -- C   371       -0.07      0.00      5.39682
 C   466 -- C   490       -0.07     -0.00      5.39685
 C   349 -- C   373       -0.07     -0.00      5.39687
 C   344 -- C   378       -0.07     -0.00      5.39688
 C   318 -- C   521       -0.07     -0.00      5.39688
 C   439 -- C   465       -0.07      0.00      5.39689
 C   404 -- C   435       -0.07     -0.00      5.39691
 C   440 -- C   470       -0.07      0.00      5.39696
 C   322 -- C   348       -0.07      0.00      5.39697
 C   442 -- C   464       -0.07      0.00      5.39698
 C   461 -- C   495       -0.07     -0.00      5.39699
 C   323 -- C   353       -0.07      0.00      5.39701
 C   463 -- C   496       -0.07     -0.00      5.39702
 C   325 -- C   347       -0.07      0.00      5.39707
 C   346 -- C   379       -0.07     -0.00      5.39713
 C   438 -- C   472       -0.07      0.00      5.39714
 C   494 -- C   516       -0.07     -0.00      5.39719
 C   377 -- C   399       -0.07     -0.00      5.39723
 C   321 -- C   355       -0.07      0.00      5.39724
 C   492 -- C   517       -0.07     -0.00      5.39725
 C   375 -- C   400       -0.07     -0.00      5.39728
 C   315 -- C   523       -0.07     -0.00      5.39767
 C   406 -- C   432       -0.07     -0.00      5.39771
 C   403 -- C   437       -0.07     -0.00      5.39787
 C   320 -- C   520       -0.07     -0.00      5.39790
 C   499 -- C   526       -0.07     -0.00      5.39841
 C   501 -- C   524       -0.07     -0.00      5.39847
 C   382 -- C   409       -0.07     -0.00      5.39848
 C   384 -- C   407       -0.07     -0.00      5.39848
 C   302 -- C   443       -0.07     -0.00      5.39868
 C   309 -- C   326       -0.07     -0.00      5.39871
 C   303 -- C   441       -0.07     -0.00      5.39871
 C   398 -- C   429       -0.07     -0.00      5.39874
 C   312 -- C   515       -0.07     -0.00      5.39874
 C   310 -- C   324       -0.07     -0.00      5.39875
 C   311 -- C   518       -0.07     -0.00      5.39886
 C   433 -- C   467       -0.07      0.00      5.39893
 C   401 -- C   428       -0.07     -0.00      5.39893
 C   316 -- C   350       -0.07      0.00      5.39894
 C   319 -- C   343       -0.07      0.00      5.39918
 C   436 -- C   460       -0.07      0.00      5.39918
=============================================================

(P)DSYGVX in subroutine dense_eigensolve returned info=    2
 ifail= 2*0
 iclustr= 610,  634
 gap= 3.E-5,  2.E-5
(P)DSYGVX in subroutine dense_eigensolve returned info=    2
 ifail= 2*0
 iclustr= 610,  634
 gap= 3.E-5,  2.E-5

============== Orbital energy and occupancy information for spin 1 =============

      Total number of orbitals:    2208
        Occupancy sum (kernel):    1063.463671237
   Occupancy sum (eigenvalues):    1063.463671237
                 HOMO-LUMO gap:       0.020401210 Eh
                 Mid-gap level:      -0.159013947 Eh

                        Orbital | Energy (Eh) | Occupancy
                            1    -1.955661450   1.0000000
                        .......   ...........   .........
                         1055    -0.191550574   0.9996294
                         1056    -0.191548488   0.9996292
                         1057    -0.182186798   0.9952672
                         1058    -0.182183790   0.9952634
                         1059    -0.170251438   0.8904520
                         1060    -0.170239277   0.8901233
                         1061    -0.170222898   0.8896318
                         1062    -0.170215021   0.8894248
                         1063    -0.169223195   0.8599176
                         1064    -0.169214552   0.8596329
                        ....... -- gap at 0K -- .........
                         1065    -0.148813342   0.0232273
                         1066    -0.148803950   0.0231678
                         1067    -0.148765099   0.0229220
                         1068    -0.148754033   0.0228542
                         1069    -0.146622431   0.0129111
                         1070    -0.146619055   0.0128993
                         1071    -0.146608888   0.0128737
                         1072    -0.146598091   0.0128369
                         1073    -0.145874696   0.0105699
                         1074    -0.145861079   0.0105190
                        .......   ...........   .........
                         2208     0.746354835   0.0000000

================================================================================

============== Orbital energy and occupancy information for spin 2 =============

      Total number of orbitals:    2208
        Occupancy sum (kernel):    1063.463671258
   Occupancy sum (eigenvalues):    1063.463671258
                 HOMO-LUMO gap:       0.000008644 Eh
                 Mid-gap level:      -0.169218873 Eh

                        Orbital | Energy (Eh) | Occupancy
                            1    -1.955661450   1.0000000
                        .......   ...........   .........
                         1054    -0.204829245   0.9999901
                         1055    -0.191550574   0.9996294
                         1056    -0.191548488   0.9996292
                         1057    -0.182186797   0.9952672
                         1058    -0.182183790   0.9952634
                         1059    -0.170251438   0.8904520
                         1060    -0.170239278   0.8901233
                         1061    -0.170222898   0.8896318
                         1062    -0.170215021   0.8894248
                         1063    -0.169223195   0.8599176
                        ....... -- gap at 0K -- .........
                         1064    -0.169214551   0.8596329
                         1065    -0.148813342   0.0232273
                         1066    -0.148803951   0.0231678
                         1067    -0.148765100   0.0229220
                         1068    -0.148754033   0.0228542
                         1069    -0.146622431   0.0129111
                         1070    -0.146619054   0.0128993
                         1071    -0.146608888   0.0128737
                         1072    -0.146598091   0.0128369
                         1073    -0.145874697   0.0105699
                        .......   ...........   .........
                         2208     0.746354835   0.0000000

================================================================================

===================== Writing canonical molecular orbitals =====================
    Spin 1
| Orbital  Energy (eV)  Norm     |
| HOMO-5   -4.63277737  1.000000 | 
| HOMO-4   -4.63244644  1.000000 | 
| HOMO-3   -4.63200074  1.000000 | 
| HOMO-2   -4.63178640  1.000000 | 
| HOMO-1   -4.60479746  1.000000 | 
| HOMO     -4.60456224  1.000000 | 
| LUMO     -4.04941708  1.000000 | 
| LUMO+1   -4.04916152  1.000000 | 
| LUMO+2   -4.04810433  1.000000 | 
| LUMO+3   -4.04780321  1.000000 | 
| LUMO+4   -3.98979937  1.000000 | 
| LUMO+5   -3.98970749  1.000000 | 
================================================================================

===================== Writing canonical molecular orbitals =====================
    Spin 2
| Orbital  Energy (eV)  Norm     |
| HOMO-5   -4.95747317  1.000000 | 
| HOMO-4   -4.63277736  1.000000 | 
| HOMO-3   -4.63244646  1.000000 | 
| HOMO-2   -4.63200074  1.000000 | 
| HOMO-1   -4.63178640  1.000000 | 
| HOMO     -4.60479745  1.000000 | 
| LUMO     -4.60456224  1.000000 | 
| LUMO+1   -4.04941710  1.000000 | 
| LUMO+2   -4.04916153  1.000000 | 
| LUMO+3   -4.04810435  1.000000 | 
| LUMO+4   -4.04780320  1.000000 | 
| LUMO+5   -3.98979936  1.000000 | 
================================================================================
 
=============== Density of States (DOS) calculation for UP spin ================
Writing "graphite_UP_DOS.txt" ... done
================================================================================
 
============== Density of States (DOS) calculation for DOWN spin ===============
Writing "graphite_DN_DOS.txt" ... done
================================================================================
 
Writing bands to file "graphite.val_bands" ... done

IS: Calculating electrolyte contribution to the atomic forces ...
================================================================================
 
***********************************************************
********** Summary of Forces (values in Eh/a) *************
*                                                         *
* ---------------------- Minimum ------------------------ *
* Atom:       514, |F|min =    0.00033233                 *
* Components:     Fx|min       Fy|min       Fz|min        *
*               0.00009141   0.00015447  -0.00027969      *
*                                                         *
* ---------------------- Maximum ------------------------ *
* Atom:       291, |F|max =    0.00116317                 *
* Components:     Fx|max       Fy|max       Fz|max        *
*              -0.00059423   0.00086664  -0.00049878      *
*                                                         *
* ---------------- Root Mean Square Force --------------- *
*                  |F|rms =    0.00084513                 *
* Components:     Fx|rms       Fy|rms       Fz|rms        *
*               0.00064912   0.00026935   0.00046939      *
***********************************************************
 

                                                      hartree           kcal/mol
IS: NB: Energy of pure electrolyte:         -0.08826598068545         -55.387738

------------------------------ TIMING INFORMATION ------------------------------
AVERAGE TIME:   17261.097s on    128 proc(s)                                    
TOTAL TIME:     17261.102s on    128 proc(s)                                    
================= AVERAGE TIMINGS FROM ALL PROCS (CUMULATIVE) ==================
|| TAG                                    #calls    cpu time   %total  Gflops ||
|| linalg_invert_sym_matrix             :     4        0.00s   0.000%  ------ || (1 procs only)
|| onetep.F90 main loop imbalance       :     1        0.00s   0.000%  ------ ||
|| onetep.F90 final imbalance           :     1        0.00s   0.000%  ------ ||
|| density_fftbox_interp_mult_imbal     : 25880        0.00s   0.000%  ------ ||
|| sparse_set_to_garbage                :   348        0.01s   0.000%  ------ ||
|| ngwfs_initialise_from_radial         :     1        0.04s   0.000%  ------ ||
|| vdwcorrection_calculate_forces       :     9        0.04s   0.000%  ------ ||
|| ewald_calculate_forces_realspace     :     9        0.04s   0.000%  ------ ||
|| vdwcorrection_calculate_energy       :     9        0.05s   0.000%  ------ ||
|| basis_extract_function_from_box      :  2070        0.14s   0.001%  ------ ||
|| pseudopotentials_core_density        :     9        0.17s   0.001%  ------ ||
|| pseudopotentials_local_on_grid       :     9        0.17s   0.001%  ------ ||
|| parallel_prepare_fd_halos_alloc      : 46005        0.26s   0.001%  ------ ||
|| restart_hamiltonian_read             :     8        0.31s   0.002%  ------ ||
|| sparse_spam3toblacs_real_fast_imbal  :  2435        0.40s   0.002%  ------ ||
|| pseudopotentials_nonlocal_mat        :    48        0.42s   0.002%  ------ ||
|| parallel_prepare_fd_halos_request    : 46005        0.43s   0.002%  ------ ||
|| sparse_blacstospam3_real_fast_imbal  :  2390        0.84s   0.005%  ------ ||
|| pseudo_make_structure_factor         :     9        1.16s   0.007%  ------ ||
|| restart_hamiltonian_write            :    28        1.23s   0.007%  ------ ||
|| smeared_ion_generate_potential_PBC   :     9        1.54s   0.009%  ------ ||
|| sparse_spam3toblacs_real_fast_B2     : 311.7k       1.89s   0.011%  ------ ||
|| parallel_prepare_fd_halos_satisfy    : 46005        2.12s   0.012%  ------ ||
|| energy_and_force_init_cell           :     1        2.32s   0.013%  ------ ||
|| sparse_init                          :     9        2.66s   0.015%  ------ ||
|| eigenstates_calculate                :     1        4.02s   0.023%  ------ ||
|| pseudo_local_calculate_forces        :     9        4.52s   0.026%  ------ ||
|| ngwf_gradient_coeffs                 :    28        4.94s   0.029%  ------ ||
|| restart_kernel_write                 :    37        5.07s   0.029%  ------ ||
|| ewald_calculate_energy               :     9        5.24s   0.030%  ------ ||
|| density_init_guess_real              :     9        5.55s   0.032%  ------ ||
|| integrals_grad_spam3                 :     9        5.56s   0.032%  ------ ||
|| nonsc_forces_ngwfs_calc              :     9        5.56s   0.032%  ------ ||
|| pseudo_nlcc_calculate_forces         :     9        6.90s   0.040%  ------ ||
|| sparse_embed_hotelling_invert_embed  :    48        7.62s   0.044%  ------ ||
|| projectors_func_grad_ovlp_box_spam3  :    27        7.83s   0.045%  ------ ||
|| pseudo_nl_calculate_forces           :     9        8.78s   0.051%  ------ ||
|| restart_ngwfs_tightbox_input         :     8       10.52s   0.061%  ------ ||
|| projectors_func_ovlp_box_spam3       :    48       13.02s   0.075%  ------ ||
|| fourier_filter_cell                  :   508       13.71s   0.079% 206.450 ||
|| boltzmann_init_steric_pot            :     9       16.27s   0.094%  ------ ||
|| sparse_trace                         :  9080       16.46s   0.095%  ------ ||
|| ewald_calculate_forces_recipspace    :     9       16.86s   0.098%  ------ ||
|| ewald_calculate_forces               :     9       16.94s   0.098%  ------ ||
|| projectors_init_fftbox_recip         :   187       18.12s   0.105%  ------ ||
|| parallel_prepare_fd_halos_comms_imbal: 46005       18.17s   0.105%  ------ ||
|| parallel_prepare_fd_halos_clear      : 46005       18.62s   0.108%  ------ ||
|| fourier_apply_box_pair               :  2430       22.72s   0.132%  1.727k ||
|| properties_calculate                 :     1       28.44s   0.165%  ------ ||
|| basis_copy_function_to_box           : 31878       29.30s   0.170%  ------ ||
|| function_ops_brappd_ketppd_spam3     :    87       30.27s   0.175%  ------ ||
|| parallel_prepare_fd_halos_comms_wait : 46005       31.26s   0.181%  ------ ||
|| integrals_kinetic_spam3              :    48       46.83s   0.271%  ------ ||
|| projectors_gradient_batch            :   112       66.35s   0.384%  ------ ||
|| sparse_product                       :  5154       66.38s   0.385%  ------ ||
|| fourier_interpolate_cell             :  1294       67.66s   0.392% 106.553 ||
|| parallel_prepare_fd_halos            : 46005       71.11s   0.412%  ------ ||
|| fourier_apply_cell_backward          :  5329       86.71s   0.502% 172.839 ||
|| sparse_spam3toblacs_real_fast_B1     : 311.7k      93.32s   0.541%  ------ ||
|| basis_dot_function_with_box          : 5.365M      98.99s   0.573%  ------ ||
|| sparse_spam3toblacs_real_fast        :  2435       99.60s   0.577%  ------ ||
|| cell_grid_extract_box_real           : 10160      117.54s   0.681%  ------ ||
|| restart_ngwfs_tightbox_output        :    21      141.02s   0.817%  ------ ||
|| sparse_blacstospam3_real_fast        :  2390      164.30s   0.952%  ------ ||
|| xc_energy_potential                  :   656      196.02s   1.136%  ------ ||
|| fourier_apply_cell_forward           :  5293      237.63s   1.377%  62.638 ||
|| finite_difference_derivative         : 46005      257.56s   1.492%  ------ ||
|| cell_grid_deposit_box_real           : 26450      268.05s   1.553%  ------ ||
|| basis_add_function_to_box            : 16.94M     326.29s   1.890%  ------ ||
|| ngwf_gradient_build_batch            :   112      329.28s   1.908%  ------ ||
|| dense_eigensolve                     :  1158      352.61s   2.043%  ------ ||
|| hamiltonian_energy_components        :    11      374.98s   2.172%  ------ ||
|| edft_diag_ngwf_ham                   :  1156      445.44s   2.581%  ------ ||
|| implicit_solvent_boltzmann_forces    :     9      484.34s   2.806%  ------ ||
|| integrals_locpot_mat_els_batch       :   904      493.46s   2.859%  ------ ||
|| ngwf_gradient_batch                  :   112      545.08s   3.158%  ------ ||
|| ngwf_gradient_lnv                    :    28      570.76s   3.307%  ------ ||
|| edft_apply_smearing_operator         :   578      673.57s   3.902%  ------ ||
|| smeared_ion_force_correction         :    18      850.68s   4.928%  ------ ||
|| density_batch_row_sums               :  2588      878.54s   5.090%  ------ ||
|| implicit_solvent_soft_sphere_forces  :     9      941.97s   5.457%  ------ ||
|| density_fftbox_deposit_to_cell       : 25880     1123.11s   6.507%  ------ ||
|| potential_apply_to_ngwf_batch        :   904     1609.64s   9.325%  ------ ||
|| integrals_locpot_dbl_grid            :   452     2108.55s  12.216%  ------ ||
|| forces_calculate                     :     9     2409.16s  13.957%  ------ ||
|| fourier_apply_box                    : 68474     2487.32s  14.410%  2.153k ||
|| dl_mg_solver_calls                   :   647     2705.80s  15.676%  ------ ||
|| multigrid_calculate_hartree          :   647     2770.67s  16.052%  ------ ||
|| density_fftbox_interpolate_multiply  : 25880     2989.20s  17.318%  ------ ||
|| density_batch_interp_deposit         :  2588     5304.12s  30.729%  ------ ||
|| density_on_dbl_grid                  :  1294     6379.30s  36.958%  ------ ||
|| hamiltonian_lhxc_calculate           :   627     9535.43s  55.242%  ------ ||
|| edft_calculate                       :    28    11758.80s  68.123%  ------ ||
|| ngwf_cg_optimise                     :     9    13269.12s  76.873%  ------ ||
|| energy_and_forces                    :     9    17210.75s  99.708%  ------ ||
|| total_time                           :     1    17261.10s 100.000%  ------ ||
================================================================================
Overhead of generating timer report: 
- 0 ms averaging over threads,
- 12 ms ensuring consistency across MPI ranks,
- 1 ms printing in order.

Job completed: 20-10-2023 16:42 (+0100)

onetep_launcher: ONETEP seems to have finished correctly (zero exit code).
