==================================================================================
It's Tue 31 Oct 2023 10:48:17 PM GMT.
*** Starting onetep_launcher (node nid005787, PIDs 49278 49279 49280 49281 49282 49283 49284 49285 49286 49287 49288 49289 49290 49291 49292 49293)...
    - ONETEP arguments: graphite.dat
    - Current directory: /mnt/lustre/a2fs-work3/work/e89/e89/arihant/linuc/new-lithiated/n/12/0.-1
    - Launcher executable directory: /mnt/lustre/a2fs-work3/work/e89/e89/arihant/onetep/utils
    - (-e) ONETEP executable specified through command-line: /work/e89/e89/arihant/onetep/bin/onetep.archer2_2023_cray
      ... trying /work/e89/e89/arihant/onetep/bin/onetep.archer2_2023_cray
          -> looks OK
*** Setting up environment...
    - (-s) Process stack size: unlimited
    - (-t) OMP_NUM_THREADS: 8
    - (-o) OMP_STACKSIZE: 64M
    - (-c) Maximum core file size: 2048000
    - (-d) decfort_dump_flag: n
    - (-m) I_MPI_OFA_TRANSLATION_CACHE: 0
    - (-m) I_MPI_DAPL_TRANSLATION_CACHE: 0
    - (-m) I_MPI_DAPL_UD_TRANSLATION_CACHE: 0
*** Starting ONETEP...
    - /work/e89/e89/arihant/onetep/bin/onetep.archer2_2023_cray graphite.dat
=================================================================================
_________________________________________________________________________________
 +---------------------------------------------------------------+
 |                                                               |
 |        ####### #     # ####### ####### ####### ######         |
 |        #     # ##    # #          #    #       #     #        |
 |        #     # # #   # #          #    #       #     #        |
 |        #     # #  #  # #####      #    #####   ######         |
 |        #     # #   # # #          #    #       #              |
 |        #     # #    ## #          #    #       #              |
 |        ####### #     # #######    #    ####### #              |
 |                                                               |
 |        Linear-Scaling Ab Initio Total Energy Program          |
 |                                                               |
 |          Release for academic collaborators of ODG            |
 |                                             Version 6.1.59    |
 | Remote: https://github.com/onetep-devel/onetep.git            |
 | Local branch: master                                          |
 | Commit ID: 3df6b8ca88fa1735659d3248d54c94b50edec21b           |
 | Date: Thu Oct 5 13:49:52 2023 +0200                           |
 | Working tree clean                                            |
 |                                                               |
 +---------------------------------------------------------------+
 |                                                               |
 |  Authors:                                                     |
 |  Jacek Dziedzic, Peter D. Haynes, Nicholas D. M. Hine,        |
 |  Arash A. Mostofi, Mike C. Payne and Chris-Kriton Skylaris    |
 |                                                               |
 |  Contributors:                                                |
 |  J. Aarons, L. Andrinopoulos, P. W. Avraam, R. A. Bell,       |
 |  A. Bhandari, G. A. Bramley, R. J. Charlton, S. J. Clark,     |
 |  R. J. Clements, G. C. Constantinescu, F. Corsetti,           |
 |  N. Corsini, O. Dieguez, S. M. M. Dubois, K. K. B. Duff,      |
 |  J. M. Escartin, M. Escobar Azor, A. Greco,                   |
 |  H. Helal, Q. O. Hill, L. P. Lee, J.-H. Li,                   |
 |  E. B. Linscott, G. Moynihan, D. D. O`Regan,                  |
 |  O. K. Okan, M. J. S. Phipps, C. J. Pickard,                  |
 |  J. C. A. Prentice, M. I. J. Probert, L. E. Ratcliff,         |
 |  M. Robinson, A. Ruiz Serrano, M. dos Santos Dias,            |
 |  J. S. Spencer, E. W. Tait, G. Teobaldi, D. Turban,           |
 |  V. Vitale, K. A. Wilkinson, C. Weber, J. C. Womack,          |
 |  N. Yeung and T. J. Zuehlsdorff                               |
 |                                                               |
 |                                   Copyright (c) 2004-2023     |
 |                                                               |
 |  Please cite:                                                 |
 |  "The ONETEP linear-scaling density functional theory program"|
 |   J. Chem. Phys. 152(17) 174111 (2020)                        |
 |                                                               |
 |          in all publications arising from your use of ONETEP. |
 |                                                               |
 +---------------------------------------------------------------+
 |                                                               |
 |   ONETEP is based on developments described in the following  |
 |   publications:                                               |
 |                                                               |
 |  "Nonorthogonal generalized Wannier function pseudopotential  |
 |   plane-wave method".                                         |
 |   C.-K. Skylaris, A. A. Mostofi, P. D. Haynes, O. Dieguez,    |
 |   M. C. Payne.                                                |
 |   Phys. Rev. B 66 035119 (2002).                              |
 |                                                               |
 |  "Preconditioned iterative minimization for linear-scaling    |
 |   electronic structure calculations".                         |
 |   A. A. Mostofi, P. D. Haynes, C.-K. Skylaris, M. C. Payne.   |
 |   J. Chem. Phys. 119(17), pp.8842-8848 (2003).                |
 |                                                               |
 |  "Total-energy calculations on a real space grid with         |
 |   localized functions and a plane-wave basis".                |
 |   A. A. Mostofi, C.-K. Skylaris, P. D. Haynes, M. C. Payne.   |
 |   Comput. Phys. Commun. 147, pp.788-802 (2002).               |
 |                                                               |
 |  "Accurate kinetic energy evaluation in electronic structure  |
 |   calculations with localized functions on real space grids"  |
 |   C.-K. Skylaris, A. A. Mostofi, P. D. Haynes, C. J. Pickard, |
 |   M. C. Payne.                                                |
 |   Comput. Phys. Commun. 140, pp.315-322 (2001).               |
 |                                                               |
 |  "Accurate ionic forces and geometry optimization in linear-  |
 |   scaling density-functional theory with local orbitals"      |
 |   N. D. M. Hine, M. Robinson, P. D. Haynes, C.-K. Skylaris,   |
 |   M. C. Payne, and A. A. Mostofi.                             |
 |   Phys. Rev. B 83 195102 (2011).                              |
 |                                                               |
 +---------------------------------------------------------------+

Job started: 31-10-2023 22:48 (+0000)
 
Reading parameters from file "graphite.dat" ...... done

If your calculation crashes here, before "Checking processes and threads..."
is displayed, then your stack size is insufficient.
If so, use "ulimit -s unlimited" at runtime.
You can disable this check with "check_stack_size F".

Checking processes and threads...
   Determining the default number of threads...
      No default threads set at compilation time: defaulting to 1.
      OpenMP library call suggests 8 threads.
      Hybrid MPI-OpenMP compilation detected.
      Number of MPI processes > 1.
      OMP_NUM_THREADS environment variable present and
      its value matches the one obtained from the OpenMP library call.
      Using this value as default.
      Default threads: 8
      Default applies to threads_max and threads_num_fftboxes.
      Settings in the input file override this default.
   ... done

   Running with 128 MPI processes.
   There are 16 MPI processes running on the same node as the root process.
   Each MPI process is using: 
               1 threads for simulation cell FFTs.
               1 threads for parallel FFT box operations.
               8 threads for loops over batched FFT box operations.
               8 threads in other parallel regions.
   MPI Interface: S1 (use mpi_f08) (-DMPI -DUSE_MPI_F08).
   MPI_ASYNC_PROTECTS_NONBLOCKING: Yes. MPI_SUBARRAYS_SUPPORTED: Yes.
   GPU Interface: None.
... done

Basic input checks...
Resetting ngwf_cg_rotate to TRUE for EDFT calculations
... done

Reading geometry and species blocks from file "graphite.dat" ...
  Reading POSITIONS geometry from str.xyz

  <species_atomic_set> block not found: NGWF initialisation set to SOLVE
IS: Dielectric excluded regions:
    - NONE.
IS: Assigning soft sphere radii for soft sphere solvation...
IS: No soft sphere radii specified. Default Alvarez radii used for all atoms.

----------- SOFT SPHERE RADII -----------
Li  5.333
C   4.442
-----------------------------------------

    
  Number of PPD points along a3 set to 1.  This is 
  the default value, it may have been provided also in the input file.
... done


--------------------------------------------------------------------------------
---------------------------------- INPUT FILE ----------------------------------
--------------------------------------------------------------------------------

task geometryoptimization                                                       
geom_method LBFGS                                                               
geom_continuation T                                                             
write_xyz T                                                                     
edft_grand_canonical T                                                          
edft_reference_potential  -4.42 eV                                              
edft_electrode_potential -0.1 V                                                 
edft_nelec_thres 0.000001                                                       
is_dielectric_function soft_sphere                                              
is_implicit_solvent T                                                           
is_smeared_ion_rep T                                                            
is_include_apolar T                                                             
is_solvation_properties F                                                       
is_pbe                    full                                                  
is_pbe_temperature        298.15                                                
is_pbe_bc_debye_screening T                                                     
is_pbe_neutralisation_scheme counterions_auto                                   
is_pbe_energy_tolerance 1E+50                                                   
is_bc_coarseness 5                                                              
is_bc_threshold 1E-9                                                            
is_bulk_permittivity 90.7                                                       
is_solvent_surf_tension 0.0506 N/m                                              
%block sol_ions                                                                 
Li  +1 1.0                                                                      
PF6 -1 1.0                                                                      
%endblock sol_ions                                                              
is_steric_pot_type M                                                            
is_hc_steric_dens_isovalue  0.001                                               
is_hc_steric_smearing         0.4 bohr                                          
is_steric_write T                                                               
%block species_solvent_radius                                                   
Li 3.0                                                                          
C 3.0                                                                           
%endblock species_solvent_radius                                                
multigrid_bc:   P P P                                                           
ion_ion_bc:     P P P                                                           
pspot_bc:       P P P                                                           
smeared_ion_bc: P P P                                                           
mg_max_iters_vcycle 500                                                         
mg_vcyc_smoother_iter_pre 4                                                     
mg_vcyc_smoother_iter_post 4                                                    
mg_max_res_ratio 1000.0                                                         
mg_max_iters_newton 300                                                         
edft                    : T                                                     
edft_smearing_width     : 0.1 eV                                                
spin                    : 0.0                                                   
edft_spin_fix           : 2                                                     
spin_polarized          : T                                                     
cutoff_energy :  1000 eV                                                        
kernel_cutoff : 1000 bohr                                                       
xc_functional PBE                                                               
dispersion 4                                                                    
output_detail VERBOSE                                                           
do_properties T                                                                 
cube_format F                                                                   
dx_format F                                                                     
write_denskern T                                                                
write_tightbox_ngwfs T                                                          
write_hamiltonian T                                                             
%block species                                                                  
Li Li 3  5  8.0                                                                 
C  C  6  4  8.0                                                                 
%endblock species                                                               
%block species_pot                                                              
Li '/work/e89/e89/arihant/pseudo/Li.usp'                                        
C '/work/e89/e89/arihant/pseudo/C.usp'                                          
%endblock species_pot                                                           
%BLOCK LATTICE_CART                                                             
ang                                                                             
34.16920551     0.00000000     0.00000000                                       
0.00000000    19.72760000     0.00000000                                        
0.00000000     0.00000000   100.02798000                                        
%ENDBLOCK LATTICE_CART                                                          
positions_xyz_file str.xyz                                                      
     Hash =   000003604908433736035992

--------------------------------------------------------------------------------
-------------------------------- END INPUT FILE --------------------------------
--------------------------------------------------------------------------------


 
 ESDF WARNING(1): "ispbeenergytolerance" (esdf_physical) has no units. Assume "hartree".
<<<<<<<<<<<<<<<<<<<<<<<<<<<<<<<<< Full system >>>>>>>>>>>>>>>>>>>>>>>>>>>>>>>>>>
<<<<<<<<<<<<<<<<<<<<<<<<< Pseudopotential information >>>>>>>>>>>>>>>>>>>>>>>>>>
File: /work/e89/e89/arihant/pseudo/Li.usp [ 2001 points up to Gmax=  52.9 (1/bohr)]
  Atomic number:  3;  ionic charge:  3.000000
    Shell 1: l = 0; rc = 1.19 bohr
    Shell 2: l = 0; rc = 1.25 bohr
File: /work/e89/e89/arihant/pseudo/C.usp [ 2001 points up to Gmax=  52.9 (1/bohr)]
  Atomic number:  6;  ionic charge:  4.000000
    Shell 1: l = 0; rc = 1.19 bohr
  Core charge supplied for Nonlinear Core Corrections
<<<<<<<<<<<<<<<<<<<<<<<<<<<<<<<<<<<<<<<<>>>>>>>>>>>>>>>>>>>>>>>>>>>>>>>>>>>>>>>>

-------------------------- Atom counting information ---------------------------
Symbol    Natoms    Nngwfs    Nprojs
  Li        44       220        88
  C        512      2048       512
.......   ......    ......    ......
Totals:    556      2268       600
--------------------------------------------------------------------------------

=============================== PSINC grid sizes ===============================
                      Simulation cell:  143 x  91 x 416
                              FFT-box:  117 x  91 x 117
                                  PPD:   11 x   7 x   1
Grid space d1=  0.451541543008a0 (KE cutoff=  37.25706Eh =1013.81618eV)
Grid space d2=  0.409667706512a0 (KE cutoff=  45.26271Eh =1231.66098eV)
Grid space d3=  0.454388192297a0 (KE cutoff=  36.79171Eh =1001.15326eV)
================================================================================
  
WARNING in cell_grid_distribute:
Average of less than one 23-slab per proc, so workload cannot be
equally balanced between procs.

********************* Fourier parallelisation information **********************
       Coarse grid (whole simulation cell) dimensions:    143    91   416
          Real-space ('12') slabs/proc (min max mean):      3     4     3
         Recip-space ('23') slabs/proc (min max mean):      0     1     0
********************************************************************************

********************* Fourier parallelisation information **********************
       Double grid (whole simulation cell) dimensions:    286   182   832
          Real-space ('12') slabs/proc (min max mean):      6     7     6
         Recip-space ('23') slabs/proc (min max mean):      1     2     1
********************************************************************************

********************* Fourier parallelisation information **********************
         Fine grid (whole simulation cell) dimensions:    288   184   832
          Real-space ('12') slabs/proc (min max mean):      6     7     6
         Recip-space ('23') slabs/proc (min max mean):      1     2     1
         Grid scale modified to satisfy multigrid solver grid constraints
         Grid scale values after modifification:         2.01  2.02  2.00
********************************************************************************
ONETEP fine grid is 288 x 184 x 832 gridpoints, 64.5704 x 37.2798 x 189.0255 bohr.
FD multigrid is     288 x 184 x 832 gridpoints, 64.5704 x 37.2798 x 189.0255 bohr.


Atom SCF Calculation for Li : Z (AE atom) =   3 : Z (PS atom) =   3
Config String:
Orbitals (num,occ):  3     2.00 1.00 0.00
Orbitals   (num,l):  3        0    0    1
Real-space Grid (nr,dr,rmax): 1343    0.0059612519    8.0000000000
Spherical Bessel Basis (nsws,lmax,cutoff):   37    1  220.4959463253
Confining potential (l,width,scale):  0    3.0000000000  100.0000000000
Confining potential (l,width,scale):  1    3.0000000000  100.0000000000
  1         -3.7050169094   -5.2301177776    2.5388568852   -0.9989538802
  2         -6.0510920273   -4.2679357854    3.2724001845   -1.3422946715
  3         -6.7975021434   -3.8722499620    3.6648237887   -1.5325279919
  4         -7.0147472228   -3.7673066376    3.7864613280   -1.5966989055
  5         -7.0774132854   -3.7446783348    3.8157063634   -1.6161454686
  6         -7.0951992563   -3.7420177453    3.8204515040   -1.6217593843
  7         -7.1001226024   -3.7430426481    3.8200527077   -1.6233132433
  8         -7.1014239576   -3.7441529610    3.8191274553   -1.6237164860
  9         -7.1017352306   -3.7448434699    3.8184905098   -1.6238077213
 10         -7.1017916056   -3.7452114113    3.8181373932   -1.6238209669
 11         -7.1017908912   -3.7453946820    3.8179578223   -1.6238181917
 12         -7.1017822190   -3.7454828903    3.8178702968   -1.6238141227
 13         -7.1017768840   -3.7455162316    3.8178369316   -1.6238119017
 14         -7.1017732849   -3.7455353767    3.8178176959   -1.6238104459
 15         -7.1017709700   -3.7455463461    3.8178066371   -1.6238095253
 16         -7.1017695244   -3.7455526225    3.8178002910   -1.6238089565
 17         -7.1017686390   -3.7455562110    3.8177966534   -1.6238086105
 18         -7.1017681040   -3.7455582619    3.8177945697   -1.6238084022
 19         -7.1017677838   -3.7455594341    3.8177933764   -1.6238082778
 20         -7.1017675934   -3.7455601042    3.8177926929   -1.6238082039
 21         -7.1017674808   -3.7455604874    3.8177923014   -1.6238081602
 22         -7.1017674145   -3.7455607066    3.8177920771   -1.6238081344
Atom SCF converged after  22 iterations to a total energy of     -7.10176741

Atom SCF Calculation for C  : Z (AE atom) =   6 : Z (PS atom) =   4
Config String:
Orbitals (num,occ):  2     2.00 2.00
Orbitals   (num,l):  2        0    1
Real-space Grid (nr,dr,rmax): 1343    0.0059612519    8.0000000000
Spherical Bessel Basis (nsws,lmax,cutoff):   37    1  220.4959463253
Confining potential (l,width,scale):  0    3.0000000000  100.0000000000
Confining potential (l,width,scale):  1    3.0000000000  100.0000000000
  1         -5.8177092822   -1.2555419264    4.5135233515   -1.7471920893
  2         -5.6032261188   -1.3440047989    4.4246587726   -1.7090653419
  3         -5.5936068668   -1.3561735374    4.4140765627   -1.7034094417
  4         -5.5958505747   -1.3587284552    4.4121342699   -1.7022848669
  5         -5.5969687665   -1.3601698222    4.4109982405   -1.7017057890
  6         -5.5975400979   -1.3609792837    4.4103423276   -1.7013975981
  7         -5.5978435204   -1.3614297943    4.4099696476   -1.7012314972
  8         -5.5980096069   -1.3616786122    4.4097605138   -1.7011416075
  9         -5.5981021113   -1.3618152853    4.4096441572   -1.7010929151
 10         -5.5981539939   -1.3618900852    4.4095797860   -1.7010665406
 11         -5.5981831160   -1.3619309228    4.4095443105   -1.7010522599
 12         -5.5981994243   -1.3619531807    4.4095248124   -1.7010445305
 13         -5.5982085235   -1.3619652972    4.4095141175   -1.7010403487
 14         -5.5982135796   -1.3619718867    4.4095082606   -1.7010380870
 15         -5.5982163780   -1.3619754676    4.4095050573   -1.7010368642
 16         -5.5982179208   -1.3619774123    4.4095033073   -1.7010362032
 17         -5.5982187685   -1.3619784678    4.4095023522   -1.7010358460
 18         -5.5982192328   -1.3619790404    4.4095018314   -1.7010356530
 19         -5.5982194864   -1.3619793509    4.4095015476   -1.7010355488
 20         -5.5982196245   -1.3619795192    4.4095013931   -1.7010354925
 21         -5.5982196995   -1.3619796104    4.4095013090   -1.7010354621
Atom SCF converged after  21 iterations to a total energy of     -5.59821970

BC: Task: GEOMETRYOPTIMIZATION
BC: +++++++++++++++ Summary of boundary conditions ++++++++++++++
BC: |       Component       |     Keyword     |   Periodicity   |
BC: |                       |                 |     X  Y  Z [1] |
BC: |-----------------------------------------------------------|
BC: | Ion-ion               | ion_ion_bc [2]  |     P  P  P     |
BC: | Local pseudopotential | pspot_bc [3]    |     P  P  P     |
BC: | Multigrid solver      | multigrid_bc    |     P  P  P     |
BC: | Smeared ions          | smeared_ion_bc  |     P  P  P     |
BC: | Van der Waals         | vdw_bc          |     P  P  P     |
BC: +++++++++++++++++++++++++++++++++++++++++++++++++++++++++++++
BC: P: Periodic, O: Open.
BC: [1] Not strictly along X, Y, Z but rather along lattice vectors A1, A2, A3.
BC: [2] Also affected by: pbc_correction_cutoff, cutoff_coulomb_type,
BC:     is_smeared_ion_rep, is_implicit_solvent, openbc_ion_ion.
BC: [3] Also affected by: is_smeared_ion_rep, is_implicit_solvent, openbc_pspot.

================================================================================
<<<<<<<<<<<<<<<< Resuming previous ONETEP Geometry Optimisation >>>>>>>>>>>>>>>>
================================================================================

 Geometry Optimisation: output file is "graphite.geom"
 
 Reading continuation file "graphite.continuation" ...done
 Geometry Optimisation: read_tightbox_ngwfs parameter over-ridden to TRUE
 Geometry Optimisation: read_hamiltonian parameter over-ridden to T
 
                           -------------------------------
                                     Cell Contents
                           -------------------------------
 
            xxxxxxxxxxxxxxxxxxxxxxxxxxxxxxxxxxxxxxxxxxxxxxxxxxxxxxxxxxxx
            x  Element    Atom      Absolute co-ordinates of atoms     x
            x            Number        x           y           z       x
            x----------------------------------------------------------x
            x    Li        1       24.799972    4.369410   16.679527   x
            x    Li        2       20.227533    1.616287   16.721213   x
            x    Li        3       20.514478   11.883353   16.692067   x
            x    Li        4       20.362465    6.783762   16.805952   x
            x    Li        5       15.818940    9.326200   16.685622   x
            x    Li        6       15.163651    3.817797   16.787959   x
            x    Li        7       25.740558    9.873589   16.857356   x
            x    Li        8       22.843234    7.867074   20.980525   x
            x    Li        9       18.173971    5.333113   21.022763   x
            x    Li       10       22.730921    2.559404   21.894888   x
            x    Li       11       18.343911   10.619040   22.012868   x
            x    Li       12       20.720718    6.552645   26.520050   x
            x    C        13       18.917429    9.196871   12.979467   x
            x    C        14       13.482149    9.200801   12.955113   x
            x    C        15       14.842318   11.552139   12.971106   x
            x    C        16       17.555915   11.552384   13.027514   x
            x    C        17       51.200460   27.832720   12.948190   x
            x    C        18       45.818681   27.832873   12.952399   x
            x    C        19       47.160490   30.167760   12.950556   x
            x    C        20       49.859156   30.167830   12.948458   x
            x    C        21       14.843538    6.851650   13.000555   x
            x    C        22       17.559892    6.856323   12.944783   x
            x    C        23       21.608632   13.888596   12.951726   x
            x    C        24       18.906893   13.886213   12.970772   x
            x    C        25       13.505731   13.873862   12.950782   x
            x    C        26       14.856189   16.198193   12.976024   x
            x    C        27       17.561539   16.203780   12.984817   x
            x    C        28       47.160460   25.497678   12.952528   x
            x    C        29       49.859005   25.497489   12.950152   x
            x    C        30       53.880340   32.491712   12.954365   x
            x    C        31       51.194365   32.491862   12.929485   x
            x    C        32       45.825461   32.491775   12.930576   x
            x    C        33       47.161337   34.815712   12.954968   x
            x    C        34       49.859551   34.816293   12.952925   x
            x    C        35       14.837015    2.179096   12.897501   x
            x    C        36       17.552139    2.187492   13.017589   x
            x    C        37       22.960794    2.169858   13.013778   x
            x    C        38        9.464471    2.187592   12.934038   x
            x    C        39       63.281693    2.207203   12.963967   x
            x    C        40        6.771536    2.190925   12.946284   x
            x    C        41       31.045607    2.202978   12.937404   x
            x    C        42        1.407400    2.205330   12.958478   x
            x    C        43       25.674725    2.172002   12.951192   x
            x    C        44       33.739790    2.205121   12.946691   x
            x    C        45       39.103987    2.195290   12.963878   x
            x    C        46       55.221031    2.196396   12.961167   x
            x    C        47       57.918725    2.196400   12.960385   x
            x    C        48       47.162472    2.207221   12.958215   x
            x    C        49       41.799907    2.196348   12.964491   x
            x    C        50       49.860053    2.207516   12.955926   x
            x    C        51       18.906976    4.524579   12.951751   x
            x    C        52       13.486772    4.521156   12.891552   x
            x    C        53       10.801907    4.523851   12.940274   x
            x    C        54       27.034051    4.523205   12.936793   x
            x    C        55        5.424657    4.528433   12.948963   x
            x    C        56       21.599520    4.527915   12.982069   x
            x    C        57       59.260993    4.532703   12.960879   x
            x    C        58        2.743869    4.531094   12.931794   x
            x    C        59       35.081463    4.530684   12.932544   x
            x    C        60       61.945382    4.532447   12.942130   x
            x    C        61       29.716949    4.526788   12.915046   x
            x    C        62       43.142656    4.532322   12.964468   x
            x    C        63       51.195151    4.532353   12.938265   x
            x    C        64       37.762251    4.532419   12.961499   x
            x    C        65       53.879764    4.532495   12.961782   x
            x    C        66       45.826885    4.532435   12.940305   x
            x    C        67       22.955633    6.866020   12.964857   x
            x    C        68       63.281951    6.857376   12.965350   x
            x    C        69        6.769452    6.866535   12.953437   x
            x    C        70       31.057324    6.858000   12.946535   x
            x    C        71       39.106647    6.868679   12.962770   x
            x    C        72       57.918889    6.868627   12.959787   x
            x    C        73        1.406722    6.856990   12.958293   x
            x    C        74        9.457873    6.866142   12.955558   x
            x    C        75       25.674149    6.873372   13.004091   x
            x    C        76       33.745602    6.858388   12.957323   x
            x    C        77       55.221308    6.868633   12.961807   x
            x    C        78       47.162814    6.857278   12.965310   x
            x    C        79       41.801100    6.868498   12.966032   x
            x    C        80       49.860460    6.857455   12.962659   x
            x    C        81       51.201555    9.193704   12.962144   x
            x    C        82       59.255226    9.193404   12.938844   x
            x    C        83        2.751640    9.193203   12.952723   x
            x    C        84       27.028379    9.202043   12.872330   x
            x    C        85       35.089820    9.196888   12.955617   x
            x    C        86       43.136732    9.193850   12.945969   x
            x    C        87       53.886295    9.193637   12.940513   x
            x    C        88       61.939893    9.193608   12.962849   x
            x    C        89        5.432836    9.194433   12.924591   x
            x    C        90       21.607619    9.200548   12.940096   x
            x    C        91       29.713452    9.200957   12.926310   x
            x    C        92       37.769992    9.194653   12.937785   x
            x    C        93       45.820720    9.193655   12.967281   x
            x    C        94       10.798989    9.197575   12.934259   x
            x    C        95       47.162932   11.530105   12.965565   x
            x    C        96       55.221500   11.518506   12.963803   x
            x    C        97       63.283205   11.529349   12.962281   x
            x    C        98       31.050902   11.537405   12.930615   x
            x    C        99       39.105389   11.520961   12.963409   x
            x    C       100       49.860453   11.529692   12.963057   x
            x    C       101       57.919471   11.518729   12.960762   x
            x    C       102        1.409270   11.530192   12.956514   x
            x    C       103       33.743151   11.534575   12.947812   x
            x    C       104       41.801003   11.519292   12.967335   x
            x    C       105        6.774549   11.519831   12.944657   x
            x    C       106       22.964928   11.534358   12.994214   x
            x    C       107       25.678781   11.543956   12.901939   x
            x    C       108        9.469292   11.521688   12.949727   x
            x    C       109       45.827244   13.854731   12.944080   x
            x    C       110       43.142033   13.855785   12.965835   x
            x    C       111       51.195126   13.854571   12.942275   x
            x    C       112       59.261734   13.854313   12.959655   x
            x    C       113       35.077683   13.860989   12.929936   x
            x    C       114       53.880381   13.854608   12.963820   x
            x    C       115       61.947598   13.854528   12.940139   x
            x    C       116       29.705484   13.871456   12.910460   x
            x    C       117       37.760733   13.857240   12.960799   x
            x    C       118        2.748481   13.854081   12.932487   x
            x    C       119       27.021154   13.878569   12.931540   x
            x    C       120        5.433130   13.856374   12.944710   x
            x    C       121       10.821646   13.864625   12.952471   x
            x    C       122       47.162213   16.179622   12.966121   x
            x    C       123       55.222067   16.189982   12.962259   x
            x    C       124       41.799539   16.191407   12.965440   x
            x    C       125       49.860159   16.179047   12.963863   x
            x    C       126       39.102282   16.193769   12.964627   x
            x    C       127       63.284401   16.178443   12.964960   x
            x    C       128       31.037727   16.189245   12.948863   x
            x    C       129       57.920188   16.190151   12.959863   x
            x    C       130       33.738294   16.186180   12.952281   x
            x    C       131        6.779588   16.192188   12.945083   x
            x    C       132        1.412411   16.179427   12.962010   x
            x    C       133       25.664687   16.214200   12.950429   x
            x    C       134       22.958538   16.217224   12.953688   x
            x    C       135        9.480264   16.194736   12.943631   x
            x    C       136       51.200976   18.514491   12.959531   x
            x    C       137       45.820279   18.515176   12.963787   x
            x    C       138       43.134285   18.516186   12.943093   x
            x    C       139       53.886969   18.514261   12.939119   x
            x    C       140       35.078043   18.519645   12.959853   x
            x    C       141       59.256089   18.514314   12.939432   x
            x    C       142       37.765091   18.517221   12.942845   x
            x    C       143       61.942348   18.514697   12.962809   x
            x    C       144       29.690240   18.526344   12.950014   x
            x    C       145        2.756264   18.514021   12.960991   x
            x    C       146       26.999962   18.527108   12.931532   x
            x    C       147        5.444003   18.514815   12.933039   x
            x    C       148       10.822022   18.519505   12.923261   x
            x    C       149       18.914477   18.529953   12.960545   x
            x    C       150       21.610406   18.530887   12.933613   x
            x    C       151       13.512731   18.521980   12.953798   x
            x    C       152       47.161100   20.850168   12.958244   x
            x    C       153       49.859589   20.849414   12.955934   x
            x    C       154       55.222271   20.838056   12.961631   x
            x    C       155       41.798459   20.839779   12.964001   x
            x    C       156       31.031344   20.856860   12.957541   x
            x    C       157       39.099793   20.841422   12.966081   x
            x    C       158       63.284811   20.849049   12.963607   x
            x    C       159       33.733220   20.855608   12.960767   x
            x    C       160       57.920972   20.838464   12.961005   x
            x    C       161        1.413798   20.849351   12.963382   x
            x    C       162        6.782411   20.838609   12.960287   x
            x    C       163       22.951919   20.848165   12.954798   x
            x    C       164       25.654690   20.849957   12.954613   x
            x    C       165       14.862355   20.856747   12.950285   x
            x    C       166        9.484795   20.838831   12.955452   x
            x    C       167       17.565453   20.856906   12.951568   x
            x    C       168       51.194485   23.173250   12.931493   x
            x    C       169       45.825370   23.173865   12.933099   x
            x    C       170       43.139674   23.174905   12.957653   x
            x    C       171       59.262485   23.173195   12.959225   x
            x    C       172       37.756365   23.176133   12.963697   x
            x    C       173       53.880846   23.173205   12.957069   x
            x    C       174       27.000701   23.178603   12.960818   x
            x    C       175       35.068559   23.177366   12.943642   x
            x    C       176        2.750930   23.172041   12.942325   x
            x    C       177       29.690407   23.179625   12.942084   x
            x    C       178       61.948592   23.172983   12.940180   x
            x    C       179       10.830378   23.173405   12.961772   x
            x    C       180       18.910194   23.177026   12.931035   x
            x    C       181        5.439100   23.172062   12.964468   x
            x    C       182       21.599753   23.177856   12.953770   x
            x    C       183       13.520468   23.173568   12.934431   x
            x    C       184       55.222644   25.508359   12.955756   x
            x    C       185       31.028728   25.499842   12.969443   x
            x    C       186       39.098378   25.510149   12.960700   x
            x    C       187       63.284800   25.496276   12.964290   x
            x    C       188        6.782953   25.505275   12.966732   x
            x    C       189       25.651223   25.509240   12.961227   x
            x    C       190       33.730085   25.499833   12.967716   x
            x    C       191       41.797018   25.509423   12.956912   x
            x    C       192       57.920910   25.508039   12.956816   x
            x    C       193        1.413574   25.495489   12.964536   x
            x    C       194       22.948941   25.508119   12.958771   x
            x    C       195       14.862211   25.494370   12.961524   x
            x    C       196        9.484553   25.504865   12.969298   x
            x    C       197       17.565015   25.494868   12.959553   x
            x    C       198       18.914246   27.825201   12.957366   x
            x    C       199       26.993253   27.830024   12.939796   x
            x    C       200       35.073872   27.833047   12.964508   x
            x    C       201       59.256044   27.831864   12.936259   x
            x    C       202        2.756020   27.829790   12.963456   x
            x    C       203       10.822980   27.824984   12.944436   x
            x    C       204       21.603998   27.825801   12.935364   x
            x    C       205       29.683141   27.830849   12.962814   x
            x    C       206       37.761587   27.833370   12.939809   x
            x    C       207       53.887034   27.832459   12.930255   x
            x    C       208       61.941884   27.831068   12.961152   x
            x    C       209        5.444316   27.828081   12.942648   x
            x    C       210       13.513019   27.825346   12.961528   x
            x    C       211       43.132722   27.832763   12.932959   x
            x    C       212       14.859254   30.153411   12.954797   x
            x    C       213       22.949010   30.145810   12.956908   x
            x    C       214       31.028998   30.165041   12.958346   x
            x    C       215       63.283605   30.166289   12.962900   x
            x    C       216        6.780120   30.150050   12.962111   x
            x    C       217       17.562102   30.155166   12.953563   x
            x    C       218       25.651913   30.146592   12.960010   x
            x    C       219       33.730828   30.166028   12.959565   x
            x    C       220        1.412284   30.164567   12.963358   x
            x    C       221        9.482303   30.148130   12.960847   x
            x    C       222       39.098292   30.156006   12.961108   x
            x    C       223       55.221920   30.156376   12.955873   x
            x    C       224       57.920454   30.155763   12.956613   x
            x    C       225       41.797328   30.156815   12.957457   x
            x    C       226       13.514439   32.476511   12.932638   x
            x    C       227       10.823933   32.478658   12.951792   x
            x    C       228       18.904204   32.471453   12.926480   x
            x    C       229       27.002181   32.481453   12.959790   x
            x    C       230        2.747945   32.488813   12.940574   x
            x    C       231       21.600635   32.472599   12.949381   x
            x    C       232       29.692330   32.484244   12.931351   x
            x    C       233       61.947192   32.489969   12.938819   x
            x    C       234        5.435394   32.486245   12.957478   x
            x    C       235       35.069352   32.489899   12.936091   x
            x    C       236       59.260979   32.490997   12.956229   x
            x    C       237       37.756619   32.491311   12.960149   x
            x    C       238       43.139463   32.491182   12.955009   x
            x    C       239       14.850115   34.789057   12.952253   x
            x    C       240       22.954526   34.797808   12.956372   x
            x    C       241        9.476461   34.815778   12.946313   x
            x    C       242       17.556781   34.785173   12.952566   x
            x    C       243        6.775868   34.819539   12.949395   x
            x    C       244       31.033828   34.809544   12.948931   x
            x    C       245       63.282654   34.814760   12.964282   x
            x    C       246       25.659367   34.805213   12.959501   x
            x    C       247        1.410308   34.812479   12.963434   x
            x    C       248       39.100520   34.825716   12.960312   x
            x    C       249       33.734310   34.812390   12.952991   x
            x    C       250       57.919224   34.826486   12.955578   x
            x    C       251       55.221410   34.827288   12.955789   x
            x    C       252       41.798190   34.827107   12.958162   x
            x    C       253       18.907622   37.112821   12.952539   x
            x    C       254       13.493778   37.124441   12.928192   x
            x    C       255       10.809968   37.133538   12.909290   x
            x    C       256       21.610395   37.116195   12.933289   x
            x    C       257        2.752526   37.148919   12.957813   x
            x    C       258       27.009809   37.130102   12.930148   x
            x    C       259        5.436138   37.144663   12.926623   x
            x    C       260       29.693111   37.139599   12.941744   x
            x    C       261       61.939845   37.150615   12.962184   x
            x    C       262       35.080941   37.148561   12.953550   x
            x    C       263       59.254382   37.151464   12.937219   x
            x    C       264       37.765111   37.150999   12.938361   x
            x    C       265       43.134623   37.150924   12.938321   x
            x    C       266       51.200936   37.151632   12.953651   x
            x    C       267       53.886154   37.151558   12.934408   x
            x    C       268       45.820011   37.151593   12.957751   x
            x    Li      269        0.052165   37.144516    9.395890   x
            x    Li      270        0.057801   27.823210    9.395383   x
            x    Li      271        0.056675   18.503599    9.395812   x
            x    Li      272        0.051282    9.182782    9.394997   x
            x    Li      273        8.131714   32.465168    9.392984   x
            x    Li      274        8.137890   23.166924    9.397578   x
            x    Li      275        8.127486   13.855594    9.385634   x
            x    Li      276        8.118583    4.525544    9.392216   x
            x    Li      277       16.197419    9.206036    9.430635   x
            x    Li      278       16.221564   18.514361    9.392630   x
            x    Li      279       16.217017   27.811703    9.390131   x
            x    Li      280       16.232161   37.142444    9.410660   x
            x    Li      281       24.322187   32.460158    9.393002   x
            x    Li      282       24.319984   23.175156    9.387548   x
            x    Li      283       24.307600   13.853585    9.406338   x
            x    Li      284       24.324099    4.509624    9.431678   x
            x    Li      285       32.410738   37.130986    9.388483   x
            x    Li      286       32.390564   27.820624    9.396271   x
            x    Li      287       32.397417   18.519781    9.391786   x
            x    Li      288       32.423103    9.182254    9.391884   x
            x    Li      289       40.443756   32.480465    9.389142   x
            x    Li      290       40.442326   23.164919    9.391563   x
            x    Li      291       40.451028   13.846326    9.396533   x
            x    Li      292       40.452488    4.522955    9.396689   x
            x    Li      293       48.492769   37.146054    9.386862   x
            x    Li      294       48.491524   27.823687    9.379357   x
            x    Li      295       48.492571   18.502192    9.391414   x
            x    Li      296       48.493446    9.182550    9.396861   x
            x    Li      297       56.551794   32.481700    9.386462   x
            x    Li      298       56.552274   23.163497    9.388626   x
            x    Li      299       56.551060   13.845546    9.394146   x
            x    Li      300       56.550218    4.523159    9.394436   x
            x    C       301       18.914742    9.193173    5.900972   x
            x    C       302       13.522996    9.193524    5.869651   x
            x    C       303       14.867393   11.529547    5.867362   x
            x    C       304       17.569925   11.529157    5.882283   x
            x    C       305       51.200082   27.832907    5.811831   x
            x    C       306       45.811169   27.832876    5.809428   x
            x    C       307       47.155945   30.168801    5.810751   x
            x    C       308       49.855334   30.168794    5.811978   x
            x    C       309       14.867969    6.857388    5.883573   x
            x    C       310       17.570219    6.857374    5.900441   x
            x    C       311       21.597270   13.852935    5.868012   x
            x    C       312       18.908281   13.853749    5.886128   x
            x    C       313       13.529344   13.854136    5.862255   x
            x    C       314       14.868137   16.177910    5.826410   x
            x    C       315       17.570152   16.177797    5.834110   x
            x    C       316       47.155730   25.496955    5.808791   x
            x    C       317       49.855436   25.497103    5.810021   x
            x    C       318       53.880808   32.493476    5.812638   x
            x    C       319       51.193725   32.493516    5.834668   x
            x    C       320       45.817709   32.493301    5.833822   x
            x    C       321       47.155946   34.817602    5.812045   x
            x    C       322       49.855606   34.817844    5.812942   x
            x    C       323       14.868454    2.209074    5.875563   x
            x    C       324       17.570832    2.209364    5.883531   x
            x    C       325       22.942438    2.197008    5.887701   x
            x    C       326        9.497085    2.197364    5.834944   x
            x    C       327       63.294975    2.208582    5.823366   x
            x    C       328        6.795837    2.197042    5.821250   x
            x    C       329       31.015434    2.208299    5.838481   x
            x    C       330        1.424836    2.208646    5.823577   x
            x    C       331       25.644555    2.196628    5.874299   x
            x    C       332       33.716578    2.208046    5.822171   x
            x    C       333       39.086730    2.197274    5.819806   x
            x    C       334       55.224943    2.197524    5.816926   x
            x    C       335       57.924763    2.197815    5.820503   x
            x    C       336       47.155874    2.208611    5.815347   x
            x    C       337       41.786645    2.197125    5.817912   x
            x    C       338       49.855652    2.208659    5.816175   x
            x    C       339       18.908976    4.533167    5.922295   x
            x    C       340       13.529675    4.533156    5.894450   x
            x    C       341       10.840781    4.533076    5.848022   x
            x    C       342       26.988830    4.532576    5.878476   x
            x    C       343        5.451293    4.533189    5.817894   x
            x    C       344       21.597889    4.532853    5.903692   x
            x    C       345       59.268735    4.533066    5.824273   x
            x    C       346        2.762917    4.533006    5.841806   x
            x    C       347       35.054543    4.532825    5.843312   x
            x    C       348       61.956767    4.533069    5.844987   x
            x    C       349       29.678121    4.532670    5.876982   x
            x    C       350       43.130410    4.532744    5.819726   x
            x    C       351       51.193218    4.532782    5.839771   x
            x    C       352       37.742910    4.532723    5.821645   x
            x    C       353       53.880992    4.532957    5.817705   x
            x    C       354       45.818123    4.532688    5.839377   x
            x    C       355       22.942326    6.868500    5.905074   x
            x    C       356       63.294802    6.857357    5.820534   x
            x    C       357        6.794984    6.868762    5.821407   x
            x    C       358       31.015027    6.857070    5.842137   x
            x    C       359       39.086480    6.868246    5.822428   x
            x    C       360       57.925041    6.868347    5.823317   x
            x    C       361        1.424963    6.857568    5.819948   x
            x    C       362        9.496403    6.868706    5.836630   x
            x    C       363       25.644082    6.868512    5.890643   x
            x    C       364       33.716647    6.856980    5.820992   x
            x    C       365       55.224955    6.868332    5.821410   x
            x    C       366       47.155665    6.857162    5.818751   x
            x    C       367       41.786539    6.868247    5.822481   x
            x    C       368       49.855812    6.857305    5.819553   x
            x    C       369       51.199484    9.192755    5.823554   x
            x    C       370       59.262775    9.192819    5.844461   x
            x    C       371        2.768767    9.193037    5.821649   x
            x    C       372       26.982470    9.192560    5.899957   x
            x    C       373       35.060599    9.192723    5.816344   x
            x    C       374       43.124021    9.192749    5.844360   x
            x    C       375       53.887291    9.192784    5.843767   x
            x    C       376       61.950678    9.192915    5.821017   x
            x    C       377        5.457136    9.192944    5.841248   x
            x    C       378       21.603686    9.192693    5.922084   x
            x    C       379       29.671046    9.192689    5.854585   x
            x    C       380       37.748779    9.192898    5.840358   x
            x    C       381       45.811797    9.192837    5.821525   x
            x    C       382       10.833486    9.193346    5.867357   x
            x    C       383       47.155819   11.528201    5.823984   x
            x    C       384       55.224956   11.517012    5.820328   x
            x    C       385       63.295007   11.528453    5.822376   x
            x    C       386       31.014775   11.528136    5.839301   x
            x    C       387       39.086421   11.517410    5.820791   x
            x    C       388       49.855591   11.528111    5.824592   x
            x    C       389       57.924994   11.517156    5.821641   x
            x    C       390        1.424794   11.528239    5.822083   x
            x    C       391       33.715923   11.528863    5.821776   x
            x    C       392       41.786366   11.517452    5.821392   x
            x    C       393        6.794988   11.517749    5.817012   x
            x    C       394       22.941703   11.516513    5.880934   x
            x    C       395       25.643953   11.516509    5.872434   x
            x    C       396        9.496220   11.517701    5.827548   x
            x    C       397       45.817863   13.852766    5.844777   x
            x    C       398       43.130557   13.852880    5.822594   x
            x    C       399       51.193539   13.852496    5.845251   x
            x    C       400       59.268877   13.852701    5.824627   x
            x    C       401       35.053966   13.852651    5.843458   x
            x    C       402       53.880642   13.852658    5.820741   x
            x    C       403       61.956563   13.852702    5.844936   x
            x    C       404       29.676919   13.852664    5.864851   x
            x    C       405       37.742370   13.853282    5.822500   x
            x    C       406        2.762948   13.853052    5.841301   x
            x    C       407       26.987856   13.852470    5.856797   x
            x    C       408        5.451234   13.852908    5.814466   x
            x    C       409       10.840481   13.853729    5.827169   x
            x    C       410       47.155853   16.176807    5.820926   x
            x    C       411       55.225087   16.188244    5.822073   x
            x    C       412       41.786270   16.188627    5.822879   x
            x    C       413       49.855515   16.176958    5.821926   x
            x    C       414       39.086336   16.188273    5.823900   x
            x    C       415       63.294957   16.177377    5.821867   x
            x    C       416       31.014475   16.176938    5.828637   x
            x    C       417       57.924587   16.188125    5.823971   x
            x    C       418       33.715698   16.177521    5.820582   x
            x    C       419        6.795846   16.189235    5.814195   x
            x    C       420        1.425003   16.177281    5.821206   x
            x    C       421       25.643239   16.188112    5.847757   x
            x    C       422       22.941745   16.188522    5.850647   x
            x    C       423        9.496751   16.189059    5.815412   x
            x    C       424       51.199728   18.512243    5.822323   x
            x    C       425       45.811439   18.512508    5.819836   x
            x    C       426       43.124131   18.512654    5.843191   x
            x    C       427       53.886743   18.512330    5.843119   x
            x    C       428       35.060020   18.512605    5.818507   x
            x    C       429       59.262791   18.512619    5.845800   x
            x    C       430       37.748309   18.513171    5.843142   x
            x    C       431       61.950369   18.512863    5.823347   x
            x    C       432       29.670338   18.512785    5.825302   x
            x    C       433        2.769321   18.513452    5.824270   x
            x    C       434       26.981353   18.512670    5.851367   x
            x    C       435        5.457895   18.513171    5.841263   x
            x    C       436       10.835314   18.513539    5.835987   x
            x    C       437       18.914637   18.513134    5.821372   x
            x    C       438       21.603782   18.513064    5.851355   x
            x    C       439       13.524398   18.513454    5.813329   x
            x    C       440       47.156002   20.847729    5.818004   x
            x    C       441       49.855206   20.847649    5.819220   x
            x    C       442       55.225307   20.836718    5.818556   x
            x    C       443       41.786007   20.837276    5.818997   x
            x    C       444       31.014240   20.848078    5.818621   x
            x    C       445       39.085795   20.837141    5.819960   x
            x    C       446       63.294998   20.848726    5.825918   x
            x    C       447       33.715547   20.848786    5.817617   x
            x    C       448       57.924655   20.837112    5.821644   x
            x    C       449        1.425174   20.848579    5.826229   x
            x    C       450        6.796180   20.837894    5.820118   x
            x    C       451       22.941668   20.837116    5.818662   x
            x    C       452       25.643382   20.836730    5.816976   x
            x    C       453       14.868706   20.848362    5.808704   x
            x    C       454        9.497480   20.837690    5.816433   x
            x    C       455       17.570591   20.848336    5.809438   x
            x    C       456       51.193791   23.172272    5.836566   x
            x    C       457       45.817459   23.172345    5.835457   x
            x    C       458       43.130133   23.172524    5.816556   x
            x    C       459       59.269128   23.172899    5.824833   x
            x    C       460       37.741703   23.172957    5.820286   x
            x    C       461       53.880644   23.172598    5.815378   x
            x    C       462       26.987459   23.172509    5.812464   x
            x    C       463       35.053394   23.172774    5.841319   x
            x    C       464        2.763445   23.173164    5.847977   x
            x    C       465       29.676380   23.172697    5.837839   x
            x    C       466       61.956701   23.172977    5.847499   x
            x    C       467       10.841625   23.173077    5.817929   x
            x    C       468       18.908735   23.172543    5.832168   x
            x    C       469        5.452100   23.173038    5.824208   x
            x    C       470       21.598003   23.172651    5.813997   x
            x    C       471       13.530652   23.172793    5.832566   x
            x    C       472       55.225491   25.508216    5.816504   x
            x    C       473       31.014550   25.497106    5.817667   x
            x    C       474       39.085630   25.508148    5.819283   x
            x    C       475       63.294964   25.497347    5.823476   x
            x    C       476        6.796429   25.508560    5.824233   x
            x    C       477       25.643492   25.508068    5.810174   x
            x    C       478       33.715523   25.497133    5.817665   x
            x    C       479       41.785730   25.508121    5.816812   x
            x    C       480       57.924823   25.508324    5.821092   x
            x    C       481        1.425278   25.497560    5.824561   x
            x    C       482       22.941838   25.507955    5.812388   x
            x    C       483       14.868837   25.497345    5.810795   x
            x    C       484        9.497526   25.508498    5.821390   x
            x    C       485       17.570723   25.497230    5.810152   x
            x    C       486       18.914673   27.832905    5.816123   x
            x    C       487       26.981796   27.832445    5.832510   x
            x    C       488       35.059790   27.832607    5.817777   x
            x    C       489       59.263056   27.832861    5.842519   x
            x    C       490        2.769424   27.832855    5.826113   x
            x    C       491       10.835792   27.832947    5.841024   x
            x    C       492       21.603978   27.832708    5.834856   x
            x    C       493       29.670755   27.832353    5.817011   x
            x    C       494       37.748028   27.832436    5.839240   x
            x    C       495       53.886984   27.832974    5.835100   x
            x    C       496       61.950374   27.833028    5.821946   x
            x    C       497        5.458188   27.832998    5.845362   x
            x    C       498       13.524970   27.833167    5.817011   x
            x    C       499       43.123627   27.832655    5.835071   x
            x    C       500       14.868965   30.168937    5.825095   x
            x    C       501       22.941820   30.157199    5.813473   x
            x    C       502       31.014858   30.167633    5.818377   x
            x    C       503       63.295038   30.168256    5.823854   x
            x    C       504        6.796237   30.156977    5.818665   x
            x    C       505       17.570748   30.168705    5.825359   x
            x    C       506       25.643901   30.156956    5.808383   x
            x    C       507       33.715844   30.167527    5.817786   x
            x    C       508        1.425083   30.168480    5.825145   x
            x    C       509        9.497814   30.157576    5.818408   x
            x    C       510       39.085827   30.157012    5.815419   x
            x    C       511       55.225493   30.157604    5.813078   x
            x    C       512       57.924782   30.157608    5.817151   x
            x    C       513       41.785975   30.157096    5.813431   x
            x    C       514       13.530816   32.493154    5.857528   x
            x    C       515       10.841797   32.493073    5.828359   x
            x    C       516       18.908984   32.492834    5.860167   x
            x    C       517       26.988084   32.492392    5.816768   x
            x    C       518        2.763281   32.492555    5.846507   x
            x    C       519       21.598171   32.492803    5.831048   x
            x    C       520       29.677134   32.491954    5.839095   x
            x    C       521       61.956491   32.492913    5.844487   x
            x    C       522        5.451885   32.493316    5.821687   x
            x    C       523       35.054081   32.492139    5.837755   x
            x    C       524       59.268981   32.493026    5.821132   x
            x    C       525       37.742285   32.492138    5.816691   x
            x    C       526       43.130302   32.493011    5.814180   x
            x    C       527       14.868933   34.817725    5.854060   x
            x    C       528       22.942408   34.828066    5.847027   x
            x    C       529        9.497411   34.828745    5.832252   x
            x    C       530       17.570839   34.817250    5.856081   x
            x    C       531        6.796196   34.828156    5.825313   x
            x    C       532       31.015200   34.816787    5.820012   x
            x    C       533       63.294788   34.816978    5.821971   x
            x    C       534       25.644049   34.828133    5.835948   x
            x    C       535        1.424957   34.817452    5.824254   x
            x    C       536       39.086547   34.828071    5.817754   x
            x    C       537       33.716344   34.816104    5.813112   x
            x    C       538       57.924684   34.828652    5.819698   x
            x    C       539       55.225197   34.828842    5.816128   x
            x    C       540       41.786368   34.828091    5.816669   x
            x    C       541       18.915735   37.152891    5.873339   x
            x    C       542       13.524395   37.153216    5.861532   x
            x    C       543       10.835196   37.152726    5.866736   x
            x    C       544       21.604459   37.152137    5.895150   x
            x    C       545        2.769227   37.152622    5.825609   x
            x    C       546       26.982573   37.151888    5.872965   x
            x    C       547        5.457779   37.152960    5.845813   x
            x    C       548       29.671349   37.152300    5.836958   x
            x    C       549       61.950248   37.152959    5.821669   x
            x    C       550       35.060934   37.152673    5.814874   x
            x    C       551       59.262716   37.152928    5.843140   x
            x    C       552       37.749051   37.152195    5.838949   x
            x    C       553       43.124417   37.152653    5.838125   x
            x    C       554       51.199781   37.153203    5.815888   x
            x    C       555       53.886841   37.153132    5.837916   x
            x    C       556       45.811696   37.152956    5.813602   x
            xxxxxxxxxxxxxxxxxxxxxxxxxxxxxxxxxxxxxxxxxxxxxxxxxxxxxxxxxxxx
 

LBFGS: continuation file name is "graphite.continuation"
 LBFGS: Restarting previous  geometry optimization.
 avg_mass=  21162.825178038067
 Enthalpy contributions:
                  total energy=  -3.01457678E+003 Eh
        diagonal pressure term=   0.00000000E+000 Eh
    off-diagonal pressure term=   0.00000000E+000 Eh
 LBFGS: finished iteration   0  with enthalpy= -3.014576778176E+003 Eh
  
 +-----------+-----------------+-----------------+------------+-----+ <-- LBFGS
 | Parameter |      value      |    tolerance    |    units   | OK? | <-- LBFGS
 +-----------+-----------------+-----------------+------------+-----+ <-- LBFGS
 |  dE/ion   |   0.000000E+000 |   1.000000E-006 |         Eh | No  | <-- LBFGS
 |  |F|max   |   1.625051E-003 |   2.000000E-003 |    Eh/Bohr | Yes | <-- LBFGS
 |  |dR|max  |   0.000000E+000 |   5.000000E-003 |       Bohr | No  | <-- LBFGS
 +-----------+-----------------+-----------------+------------+-----+ <-- LBFGS
  

================================================================================
 Starting LBFGS iteration    1 ...
================================================================================
 Writing xyz coordinates to file "graphite.xyz" ... done

 Writing continuation file "graphite.continuation" ...done
 Backing up NGWFs to file "graphite.tightbox_ngwfs.bfgs_back" ... done
 Backing up Hamiltonian to file "graphite.ham.bfgs_back" ... done
  
 +------------+-------------+-------------+-----------------+ <-- min LBFGS
 |    Step    |   lambda    |   F.delta   |    enthalpy     | <-- min LBFGS
 +------------+-------------+-------------+-----------------+ <-- min LBFGS
 |  previous  |    0.000000 |    0.000065 |    -3014.576778 | <-- min LBFGS
 +------------+-------------+-------------+-----------------+ <-- min LBFGS
  

--------------------------------------------------------------------------------
 LBFGS: starting iteration   1 with trial guess (lambda=    1.000000)
--------------------------------------------------------------------------------
 
                           -------------------------------
                                     Cell Contents
                           -------------------------------
 
            xxxxxxxxxxxxxxxxxxxxxxxxxxxxxxxxxxxxxxxxxxxxxxxxxxxxxxxxxxxx
            x  Element    Atom      Absolute co-ordinates of atoms     x
            x            Number        x           y           z       x
            x----------------------------------------------------------x
            x    Li        1       24.801342    4.369742   16.676930   x
            x    Li        2       20.226882    1.615701   16.718373   x
            x    Li        3       20.515415   11.884262   16.689152   x
            x    Li        4       20.362196    6.783860   16.807287   x
            x    Li        5       15.817340    9.325809   16.682837   x
            x    Li        6       15.163462    3.817622   16.786003   x
            x    Li        7       25.741019    9.873935   16.855859   x
            x    Li        8       22.842312    7.866804   20.980672   x
            x    Li        9       18.174641    5.333739   21.022826   x
            x    Li       10       22.731001    2.559064   21.895113   x
            x    Li       11       18.343724   10.619334   22.012668   x
            x    Li       12       20.720731    6.552718   26.519955   x
            x    C        13       18.917606    9.196526   12.980048   x
            x    C        14       13.482313    9.200533   12.954991   x
            x    C        15       14.842389   11.551950   12.970884   x
            x    C        16       17.555919   11.552113   13.027899   x
            x    C        17       51.200451   27.832629   12.947761   x
            x    C        18       45.818814   27.832851   12.952090   x
            x    C        19       47.160609   30.167717   12.950134   x
            x    C        20       49.859282   30.167616   12.948134   x
            x    C        21       14.844023    6.851426   13.001045   x
            x    C        22       17.559841    6.856051   12.945224   x
            x    C        23       21.608634   13.888535   12.951591   x
            x    C        24       18.906855   13.886085   12.970995   x
            x    C        25       13.505801   13.873631   12.951155   x
            x    C        26       14.856076   16.198073   12.976282   x
            x    C        27       17.561802   16.203899   12.985342   x
            x    C        28       47.160769   25.497818   12.952140   x
            x    C        29       49.859216   25.497604   12.949848   x
            x    C        30       53.880249   32.491599   12.954094   x
            x    C        31       51.194335   32.491691   12.929381   x
            x    C        32       45.825543   32.491714   12.930584   x
            x    C        33       47.161261   34.815744   12.954629   x
            x    C        34       49.859499   34.816098   12.952667   x
            x    C        35       14.836940    2.179367   12.897511   x
            x    C        36       17.552221    2.188038   13.018525   x
            x    C        37       22.960731    2.170106   13.013560   x
            x    C        38        9.464602    2.187752   12.934042   x
            x    C        39       63.281773    2.206931   12.963592   x
            x    C        40        6.771282    2.190939   12.945516   x
            x    C        41       31.045590    2.203024   12.936934   x
            x    C        42        1.407673    2.205556   12.958270   x
            x    C        43       25.674728    2.172059   12.951037   x
            x    C        44       33.739951    2.205313   12.946243   x
            x    C        45       39.103656    2.195520   12.963637   x
            x    C        46       55.221394    2.196341   12.960827   x
            x    C        47       57.919039    2.196288   12.960117   x
            x    C        48       47.162291    2.207216   12.957753   x
            x    C        49       41.799909    2.196099   12.964231   x
            x    C        50       49.859727    2.207478   12.955579   x
            x    C        51       18.906971    4.525073   12.950774   x
            x    C        52       13.486958    4.521187   12.891646   x
            x    C        53       10.801996    4.524002   12.940857   x
            x    C        54       27.033940    4.523379   12.936638   x
            x    C        55        5.424889    4.528592   12.948209   x
            x    C        56       21.599168    4.528264   12.982712   x
            x    C        57       59.260914    4.532665   12.960444   x
            x    C        58        2.743624    4.530992   12.931723   x
            x    C        59       35.081236    4.530812   12.932045   x
            x    C        60       61.945253    4.532272   12.942119   x
            x    C        61       29.716981    4.526925   12.915238   x
            x    C        62       43.142868    4.532303   12.964036   x
            x    C        63       51.194926    4.532416   12.938152   x
            x    C        64       37.762123    4.532402   12.961336   x
            x    C        65       53.879875    4.532559   12.961524   x
            x    C        66       45.827141    4.532433   12.940298   x
            x    C        67       22.955634    6.866330   12.965529   x
            x    C        68       63.281952    6.857360   12.965056   x
            x    C        69        6.769336    6.866674   12.952712   x
            x    C        70       31.057149    6.858057   12.946689   x
            x    C        71       39.106064    6.868773   12.962422   x
            x    C        72       57.919088    6.868669   12.959413   x
            x    C        73        1.407304    6.856917   12.958175   x
            x    C        74        9.458130    6.866063   12.955956   x
            x    C        75       25.673561    6.873564   13.004394   x
            x    C        76       33.745735    6.858218   12.956852   x
            x    C        77       55.221656    6.868697   12.961402   x
            x    C        78       47.162671    6.857283   12.964917   x
            x    C        79       41.801045    6.868551   12.965741   x
            x    C        80       49.860139    6.857497   12.962396   x
            x    C        81       51.201445    9.193707   12.961734   x
            x    C        82       59.254995    9.193479   12.938676   x
            x    C        83        2.751719    9.193319   12.952416   x
            x    C        84       27.028174    9.202023   12.872212   x
            x    C        85       35.089559    9.196745   12.954805   x
            x    C        86       43.136880    9.194007   12.945815   x
            x    C        87       53.886515    9.193642   12.940538   x
            x    C        88       61.939675    9.193713   12.962505   x
            x    C        89        5.433060    9.194338   12.924088   x
            x    C        90       21.607530    9.200029   12.939125   x
            x    C        91       29.713522    9.200802   12.926918   x
            x    C        92       37.770183    9.194759   12.937831   x
            x    C        93       45.820844    9.193733   12.966980   x
            x    C        94       10.799002    9.197387   12.934667   x
            x    C        95       47.162717   11.530193   12.965115   x
            x    C        96       55.221845   11.518491   12.963430   x
            x    C        97       63.283178   11.529657   12.961873   x
            x    C        98       31.050873   11.537310   12.930493   x
            x    C        99       39.105096   11.520685   12.963120   x
            x    C       100       49.860117   11.529734   12.962721   x
            x    C       101       57.919720   11.518754   12.960448   x
            x    C       102        1.409522   11.530000   12.956368   x
            x    C       103       33.743355   11.534526   12.947121   x
            x    C       104       41.800929   11.519525   12.967094   x
            x    C       105        6.774374   11.519689   12.944062   x
            x    C       106       22.964808   11.533788   12.994877   x
            x    C       107       25.678867   11.543742   12.902161   x
            x    C       108        9.469374   11.521571   12.949589   x
            x    C       109       45.827304   13.854768   12.944080   x
            x    C       110       43.142213   13.855602   12.965371   x
            x    C       111       51.195005   13.854566   12.942160   x
            x    C       112       59.261746   13.854314   12.959199   x
            x    C       113       35.077572   13.860815   12.929538   x
            x    C       114       53.880460   13.854585   12.963533   x
            x    C       115       61.947477   13.854466   12.940114   x
            x    C       116       29.705762   13.871541   12.910559   x
            x    C       117       37.760637   13.857092   12.960593   x
            x    C       118        2.748414   13.854242   12.932474   x
            x    C       119       27.021196   13.878746   12.931747   x
            x    C       120        5.433131   13.856264   12.944258   x
            x    C       121       10.821637   13.864657   12.952238   x
            x    C       122       47.162073   16.179575   12.965754   x
            x    C       123       55.222198   16.190040   12.961827   x
            x    C       124       41.799710   16.191450   12.965075   x
            x    C       125       49.860074   16.179135   12.963599   x
            x    C       126       39.102184   16.193441   12.964287   x
            x    C       127       63.284336   16.178448   12.964598   x
            x    C       128       31.037648   16.189660   12.948320   x
            x    C       129       57.920361   16.189988   12.959531   x
            x    C       130       33.738177   16.186345   12.951945   x
            x    C       131        6.779580   16.192540   12.944547   x
            x    C       132        1.412449   16.179345   12.961833   x
            x    C       133       25.664907   16.214451   12.950553   x
            x    C       134       22.958392   16.217444   12.953672   x
            x    C       135        9.480342   16.195024   12.943055   x
            x    C       136       51.200981   18.514578   12.959129   x
            x    C       137       45.820252   18.515164   12.963504   x
            x    C       138       43.134275   18.516048   12.942956   x
            x    C       139       53.886971   18.514337   12.939146   x
            x    C       140       35.077821   18.519691   12.959477   x
            x    C       141       59.256132   18.514227   12.939298   x
            x    C       142       37.764741   18.517560   12.942921   x
            x    C       143       61.942436   18.514450   12.962472   x
            x    C       144       29.690206   18.526640   12.949351   x
            x    C       145        2.756522   18.514224   12.960659   x
            x    C       146       27.000126   18.527459   12.931126   x
            x    C       147        5.444091   18.514982   12.933215   x
            x    C       148       10.821823   18.519812   12.922658   x
            x    C       149       18.914346   18.530251   12.960258   x
            x    C       150       21.610617   18.531163   12.933483   x
            x    C       151       13.512462   18.522330   12.953052   x
            x    C       152       47.161133   20.850038   12.957838   x
            x    C       153       49.859691   20.849550   12.955611   x
            x    C       154       55.222125   20.838203   12.961287   x
            x    C       155       41.798257   20.839754   12.963768   x
            x    C       156       31.031428   20.856747   12.957039   x
            x    C       157       39.099699   20.841474   12.965759   x
            x    C       158       63.285060   20.848974   12.963151   x
            x    C       159       33.732749   20.855543   12.960521   x
            x    C       160       57.920949   20.838405   12.960748   x
            x    C       161        1.414007   20.849185   12.963047   x
            x    C       162        6.782792   20.838515   12.960151   x
[...]
 C   315 -- C   453       -0.07     -0.00      5.39581
 C    22 -- C    67       -0.07      0.00      5.39584
 C   332 -- C   532       -0.07     -0.00      5.39597
 C   396 -- C   419       -0.07      0.00      5.39604
 C   451 -- C   477       -0.07     -0.00      5.39610
 C   314 -- C   455       -0.07     -0.00      5.39615
 C   506 -- C   528       -0.07     -0.00      5.39618
 C   328 -- C   362       -0.07     -0.00      5.39626
 C   452 -- C   482       -0.07     -0.00      5.39629
 C   393 -- C   423       -0.07     -0.00      5.39638
 C   416 -- C   447       -0.07     -0.00      5.39639
 C   501 -- C   534       -0.07     -0.00      5.39641
 C   364 -- C   386       -0.07     -0.00      5.39642
 C   483 -- C   505       -0.07     -0.00      5.39643
 C   325 -- C   363       -0.07     -0.00      5.39645
 C   504 -- C   529       -0.07     -0.00      5.39646
 C   329 -- C   537       -0.07      0.00      5.39647
 C   358 -- C   391       -0.07     -0.00      5.39649
 C   326 -- C   357       -0.07     -0.00      5.39665
 C   304 -- C   309       -0.07     -0.00      5.39666
 C   485 -- C   500       -0.07     -0.00      5.39666
 C   324 -- C   527       -0.07     -0.00      5.39670
 C    27 -- C   134       -0.08     -0.00      5.39670
 C   394 -- C   421       -0.07     -0.00      5.39670
 C   323 -- C   530       -0.07      0.00      5.39704
 C   104 -- C   126       -0.07      0.00      5.39710
 C   395 -- C   422       -0.07      0.00      5.39719
 C   331 -- C   355       -0.07     -0.00      5.39726
 C    39 -- C   247       -0.07      0.00      5.39733
 C    91 -- C   119       -0.07     -0.00      5.39739
 C   240 -- C   242       -0.08     -0.00      5.39743
 C   303 -- C   310       -0.07     -0.00      5.39749
 C   130 -- C   156       -0.07     -0.00      5.39807
 C    53 -- C   254       -0.07     -0.00      5.39842
 C   221 -- C   243       -0.07     -0.00      5.39845
 C    51 -- C    90       -0.07      0.00      5.39892
 C   256 -- C   258       -0.07     -0.00      5.39952
 C    76 -- C    98       -0.07      0.00      5.39971
 C    38 -- C    69       -0.07      0.00      5.39973
 C   174 -- C   182       -0.07     -0.00      5.40090
 C    24 -- C    25       -0.07     -0.00      5.40110
 C   198 -- C   210       -0.07     -0.00      5.40119
 C   229 -- C   231       -0.07      0.00      5.40169
 C   149 -- C   151       -0.07      0.00      5.40189
 C   105 -- C   135       -0.07     -0.00      5.40195
 C    44 -- C   244       -0.07      0.00      5.40248
 C    25 -- C    94       -0.07      0.00      5.40317
 C    61 -- C   258       -0.07      0.00      5.40361
 C    36 -- C   239       -0.07     -0.00      5.40362
 C   106 -- C   133       -0.07     -0.00      5.40381
 Li    9 -- Li   10        0.15      0.01      5.40556
 Li    6 -- C    51       -0.06     -0.00      5.40586
 C   107 -- C   134       -0.07     -0.00      5.40806
 C    35 -- C   242       -0.07     -0.00      5.40824
 C    36 -- C    37       -0.06     -0.00      5.40854
 C    24 -- C    90       -0.06     -0.00      5.40868
 C    13 -- C    23       -0.06     -0.00      5.40901
 C    16 -- C   106       -0.06     -0.00      5.40902
 C    22 -- C    35       -0.06     -0.00      5.41182
 C    56 -- C   253       -0.06     -0.00      5.41203
 C    51 -- C   256       -0.06     -0.00      5.41209
 C    23 -- C   119       -0.07     -0.00      5.41261
 C    67 -- C   107       -0.06      0.00      5.41278
 C   253 -- C   254       -0.07     -0.00      5.41372
 Li    6 -- Li    9        0.18      0.02      5.41447
 C    51 -- C    52       -0.06      0.00      5.42034
 C    84 -- C    90       -0.06      0.00      5.42106
 C    43 -- C    67       -0.05     -0.00      5.42493
 C    15 -- C    22       -0.05     -0.00      5.42556
 Li    7 -- Li    8        0.18      0.02      5.42634
 C    16 -- C    21       -0.05     -0.00      5.42693
 C    37 -- C    75       -0.05     -0.00      5.42974
 C    54 -- C    56       -0.05     -0.00      5.43497
 C    13 -- C    14       -0.05     -0.00      5.43535
 Li    6 -- C    22       -0.06     -0.00      5.45218
 Li    2 -- Li    6        0.11      0.01      5.52189
 Li    5 -- Li    6        0.11      0.01      5.54782
 Li    1 -- Li    7        0.11      0.01      5.58669
 Li    3 -- Li    7        0.11      0.01      5.60144
 Li    7 -- C    91       -0.04      0.00      5.62765
 Li    7 -- C    67       -0.05     -0.00      5.65144
=============================================================


============== Orbital energy and occupancy information for spin 1 =============

      Total number of orbitals:    2268
        Occupancy sum (kernel):    1085.043415160
   Occupancy sum (eigenvalues):    1085.043415160
                 HOMO-LUMO gap:       0.000897995 Eh
                 Mid-gap level:      -0.156722007 Eh

                        Orbital | Energy (Eh) | Occupancy
                            1    -1.939519895   1.0000000
                        .......   ...........   .........
                         1077    -0.174856547   0.9872185
                         1078    -0.172694873   0.9773682
                         1079    -0.172294840   0.9749388
                         1080    -0.171115610   0.9617801
                         1081    -0.168375810   0.9308000
                         1082    -0.168350119   0.9302697
                         1083    -0.158409195   0.4660897
                         1084    -0.158260550   0.4589563
                         1085    -0.157389682   0.4010183
                         1086    -0.157171005   0.3887988
                        ....... -- gap at 0K -- .........
                         1087    -0.156273009   0.3286954
                         1088    -0.154993669   0.2610133
                         1089    -0.152774593   0.1602623
                         1090    -0.152243810   0.1415241
                         1091    -0.152176924   0.1397152
                         1092    -0.151096268   0.1088547
                         1093    -0.150877312   0.1031367
                         1094    -0.149386476   0.0711939
                         1095    -0.148436041   0.0556231
                         1096    -0.147436414   0.0429797
                        .......   ...........   .........
                         2268     0.721320434   0.0000000

================================================================================

============== Orbital energy and occupancy information for spin 2 =============

      Total number of orbitals:    2268
        Occupancy sum (kernel):    1084.167250905
   Occupancy sum (eigenvalues):    1084.167250905
                 HOMO-LUMO gap:       0.001101615 Eh
                 Mid-gap level:      -0.157622857 Eh

                        Orbital | Energy (Eh) | Occupancy
                            1    -1.937463872   1.0000000
                        .......   ...........   .........
                         1075    -0.175213623   0.9884918
                         1076    -0.174848221   0.9872308
                         1077    -0.172596053   0.9770210
                         1078    -0.172475440   0.9762221
                         1079    -0.168435263   0.9318562
                         1080    -0.168369073   0.9307330
                         1081    -0.162309328   0.7184390
                         1082    -0.159463797   0.5395311
                         1083    -0.158297431   0.4593212
                         1084    -0.158173664   0.4530078
                        ....... -- gap at 0K -- .........
                         1085    -0.157072049   0.3808482
                         1086    -0.156914315   0.3724994
                         1087    -0.154965321   0.2595498
                         1088    -0.154460754   0.2346287
                         1089    -0.152443380   0.1485972
                         1090    -0.152226733   0.1409452
                         1091    -0.151459941   0.1182977
                         1092    -0.151100940   0.1089753
                         1093    -0.150844360   0.1023176
                         1094    -0.149376327   0.0710124
                        .......   ...........   .........
                         2268     0.721319856   0.0000000

================================================================================

===================== Writing canonical molecular orbitals =====================
    Spin 1
| Orbital  Energy (eV)  Norm     |
| HOMO-5   -4.58173891  1.000000 | 
| HOMO-4   -4.58103984  1.000000 | 
| HOMO-3   -4.31053352  1.000000 | 
| HOMO-2   -4.30648870  1.000000 | 
| HOMO-1   -4.28279116  1.000000 | 
| HOMO     -4.27684066  1.000000 | 
| LUMO     -4.25240496  1.000000 | 
| LUMO+1   -4.21759234  1.000000 | 
| LUMO+2   -4.15720820  1.000000 | 
| LUMO+3   -4.14276488  1.000000 | 
| LUMO+4   -4.14094480  1.000000 | 
| LUMO+5   -4.11153865  1.000000 | 
================================================================================

===================== Writing canonical molecular orbitals =====================
    Spin 2
| Orbital  Energy (eV)  Norm     |
| HOMO-5   -4.58335673  1.000000 | 
| HOMO-4   -4.58155559  1.000000 | 
| HOMO-3   -4.41666154  1.000000 | 
| HOMO-2   -4.33923070  1.000000 | 
| HOMO-1   -4.30749229  1.000000 | 
| HOMO     -4.30412442  1.000000 | 
| LUMO     -4.27414794  1.000000 | 
| LUMO+1   -4.26985577  1.000000 | 
| LUMO+2   -4.21682094  1.000000 | 
| LUMO+3   -4.20309100  1.000000 | 
| LUMO+4   -4.14819544  1.000000 | 
| LUMO+5   -4.14230018  1.000000 | 
================================================================================
 
=============== Density of States (DOS) calculation for UP spin ================
Writing "graphite_UP_DOS.txt" ... done
================================================================================
 
============== Density of States (DOS) calculation for DOWN spin ===============
Writing "graphite_DN_DOS.txt" ... done
================================================================================
 
Writing bands to file "graphite.val_bands" ... done

IS: Calculating electrolyte contribution to the atomic forces ...
================================================================================
 
***********************************************************
********** Summary of Forces (values in Eh/a) *************
*                                                         *
* ---------------------- Minimum ------------------------ *
* Atom:       456, |F|min =    0.00001818                 *
* Components:     Fx|min       Fy|min       Fz|min        *
*               0.00001806  -0.00000048   0.00000199      *
*                                                         *
* ---------------------- Maximum ------------------------ *
* Atom:        11, |F|max =    0.00179188                 *
* Components:     Fx|max       Fy|max       Fz|max        *
*              -0.00058351   0.00130358  -0.00108215      *
*                                                         *
* ---------------- Root Mean Square Force --------------- *
*                  |F|rms =    0.00023422                 *
* Components:     Fx|rms       Fy|rms       Fz|rms        *
*               0.00013428   0.00013416   0.00013723      *
***********************************************************
 

                                                      hartree           kcal/mol
IS: NB: Energy of pure electrolyte:         -0.08168026752589         -51.255141

------------------------------ TIMING INFORMATION ------------------------------
AVERAGE TIME:    2503.121s on    128 proc(s)                                    
TOTAL TIME:      2503.126s on    128 proc(s)                                    
================= AVERAGE TIMINGS FROM ALL PROCS (CUMULATIVE) ==================
|| TAG                                    #calls    cpu time   %total  Gflops ||
|| linalg_invert_sym_matrix             :     2        0.00s   0.000%  ------ || (1 procs only)
|| density_fftbox_interp_mult_imbal     :  3320        0.00s   0.000%  ------ ||
|| onetep.F90 main loop imbalance       :     1        0.00s   0.000%  ------ ||
|| sparse_set_to_garbage                :    24        0.00s   0.000%  ------ ||
|| ewald_calculate_forces_realspace     :     2        0.01s   0.000%  ------ ||
|| vdwcorrection_calculate_forces       :     2        0.01s   0.000%  ------ ||
|| vdwcorrection_calculate_energy       :     2        0.01s   0.000%  ------ ||
|| basis_extract_function_from_box      :   248        0.02s   0.001%  ------ ||
|| onetep.F90 final imbalance           :     1        0.02s   0.001%  ------ ||
|| sparse_spam3toblacs_real_fast_imbal  :   308        0.03s   0.001%  ------ ||
|| pseudopotentials_core_density        :     2        0.04s   0.001%  ------ ||
|| pseudopotentials_local_on_grid       :     2        0.04s   0.002%  ------ ||
|| parallel_prepare_fd_halos_alloc      : 10257        0.06s   0.002%  ------ ||
|| restart_hamiltonian_read             :     2        0.08s   0.003%  ------ ||
|| parallel_prepare_fd_halos_request    : 10257        0.10s   0.004%  ------ ||
|| sparse_blacstospam3_real_fast_imbal  :   300        0.10s   0.004%  ------ ||
|| restart_hamiltonian_write            :     3        0.14s   0.006%  ------ ||
|| pseudopotentials_nonlocal_mat        :     4        0.16s   0.006%  ------ ||
|| sparse_spam3toblacs_real_fast_B2     : 39424        0.25s   0.010%  ------ ||
|| pseudo_make_structure_factor         :     2        0.26s   0.010%  ------ ||
|| parallel_prepare_fd_halos_satisfy    : 10257        0.47s   0.019%  ------ ||
|| ngwf_gradient_coeffs                 :     3        0.58s   0.023%  ------ ||
|| restart_kernel_write                 :     5        0.76s   0.031%  ------ ||
|| sparse_init                          :     2        0.91s   0.037%  ------ ||
|| pseudo_local_calculate_forces        :     2        1.01s   0.041%  ------ ||
|| projectors_func_ovlp_box_spam3       :     4        1.25s   0.050%  ------ ||
|| smeared_ion_generate_potential_PBC   :     2        1.26s   0.050%  ------ ||
|| integrals_grad_spam3                 :     2        1.26s   0.050%  ------ ||
|| nonsc_forces_ngwfs_calc              :     2        1.26s   0.050%  ------ ||
|| ewald_calculate_energy               :     2        1.29s   0.052%  ------ ||
|| density_init_guess_real              :     2        1.33s   0.053%  ------ ||
|| sparse_embed_hotelling_invert_embed  :     4        1.44s   0.058%  ------ ||
|| pseudo_nlcc_calculate_forces         :     2        1.53s   0.061%  ------ ||
|| fourier_filter_cell                  :    70        1.88s   0.075% 207.475 ||
|| projectors_func_grad_ovlp_box_spam3  :     6        1.97s   0.079%  ------ ||
|| projectors_init_fftbox_recip         :    22        2.13s   0.085%  ------ ||
|| pseudo_nl_calculate_forces           :     2        2.22s   0.089%  ------ ||
|| sparse_trace                         :  1160        2.31s   0.092%  ------ ||
|| fourier_apply_box_pair               :   266        2.47s   0.099%  1.746k ||
|| energy_and_force_init_cell           :     1        2.52s   0.101%  ------ ||
|| restart_ngwfs_tightbox_input         :     2        2.53s   0.101%  ------ ||
|| function_ops_brappd_ketppd_spam3     :     6        2.61s   0.104%  ------ ||
|| boltzmann_init_steric_pot            :     2        3.61s   0.144%  ------ ||
|| basis_copy_function_to_box           :  4642        3.71s   0.148%  ------ ||
|| ewald_calculate_forces_recipspace    :     2        4.04s   0.161%  ------ ||
|| ewald_calculate_forces               :     2        4.06s   0.162%  ------ ||
|| eigenstates_calculate                :     1        4.12s   0.165%  ------ ||
|| parallel_prepare_fd_halos_clear      : 10257        4.12s   0.165%  ------ ||
|| parallel_prepare_fd_halos_comms_imbal: 10257        4.20s   0.168%  ------ ||
|| integrals_kinetic_spam3              :     4        4.37s   0.175%  ------ ||
|| parallel_prepare_fd_halos_comms_wait : 10257        6.96s   0.278%  ------ ||
|| fourier_interpolate_cell             :   166        8.49s   0.339% 108.933 ||
|| projectors_gradient_batch            :    12        8.95s   0.358%  ------ ||
|| sparse_product                       :   689        9.57s   0.382%  ------ ||
|| sparse_spam3toblacs_real_fast_B1     : 39424       11.03s   0.441%  ------ ||
|| fourier_apply_cell_backward          :   698       11.21s   0.448% 175.157 ||
|| sparse_spam3toblacs_real_fast        :   308       11.85s   0.473%  ------ ||
|| basis_dot_function_with_box          : 792.7k      14.63s   0.584%  ------ ||
|| parallel_prepare_fd_halos            : 10257       15.96s   0.638%  ------ ||
|| restart_ngwfs_tightbox_output        :     2       16.31s   0.652%  ------ ||
|| cell_grid_extract_box_real           :  1400       18.06s   0.722%  ------ ||
|| sparse_blacstospam3_real_fast        :   300       21.29s   0.850%  ------ ||
|| xc_energy_potential                  :    85       25.07s   1.002%  ------ ||
|| properties_calculate                 :     1       28.26s   1.129%  ------ ||
|| fourier_apply_cell_forward           :   690       36.12s   1.443%  53.720 ||
|| ngwf_gradient_build_batch            :    12       38.80s   1.550%  ------ ||
|| basis_add_function_to_box            : 2.258M      42.69s   1.706%  ------ ||
|| cell_grid_deposit_box_real           :  3820       44.81s   1.790%  ------ ||
|| dense_eigensolve                     :   150       44.92s   1.795%  ------ ||
|| finite_difference_derivative         : 10257       47.42s   1.894%  ------ ||
|| edft_diag_ngwf_ham                   :   148       55.60s   2.221%  ------ ||
|| ngwf_gradient_batch                  :    12       61.84s   2.471%  ------ ||
|| ngwf_gradient_lnv                    :     3       64.22s   2.566%  ------ ||
|| hamiltonian_energy_components        :     2       67.95s   2.715%  ------ ||
|| integrals_locpot_mat_els_batch       :   128       68.91s   2.753%  ------ ||
|| edft_apply_smearing_operator         :    74       86.57s   3.459%  ------ ||
|| implicit_solvent_boltzmann_forces    :     2       97.28s   3.886%  ------ ||
|| density_batch_row_sums               :   332      132.78s   5.304%  ------ ||
|| density_fftbox_deposit_to_cell       :  3320      157.14s   6.278%  ------ ||
|| smeared_ion_force_correction         :     4      191.39s   7.646%  ------ ||
|| implicit_solvent_soft_sphere_forces  :     2      203.55s   8.132%  ------ ||
|| potential_apply_to_ngwf_batch        :   128      244.70s   9.776%  ------ ||
|| fourier_apply_box                    :  9113      267.68s  10.694%  2.677k ||
|| dl_mg_solver_calls                   :    83      304.58s  12.168%  ------ ||
|| density_fftbox_interpolate_multiply  :  3320      306.98s  12.264%  ------ ||
|| multigrid_calculate_hartree          :    83      313.00s  12.504%  ------ ||
|| integrals_locpot_dbl_grid            :    64      313.96s  12.543%  ------ ||
|| forces_calculate                     :     2      521.10s  20.818%  ------ ||
|| density_batch_interp_deposit         :   332      634.59s  25.352%  ------ ||
|| density_on_dbl_grid                  :   166      792.16s  31.647%  ------ ||
|| hamiltonian_lhxc_calculate           :    79     1117.44s  44.642%  ------ ||
|| edft_calculate                       :     3     1428.40s  57.065%  ------ ||
|| ngwf_cg_optimise                     :     2     1599.60s  63.904%  ------ ||
|| energy_and_forces                    :     2     2494.74s  99.665%  ------ ||
|| total_time                           :     1     2503.12s 100.000%  ------ ||
================================================================================
Overhead of generating timer report: 
- 0 ms averaging over threads,
- 12 ms ensuring consistency across MPI ranks,
- 1 ms printing in order.

Job completed: 31-10-2023 23:30 (+0000)

onetep_launcher: ONETEP seems to have finished correctly (zero exit code).
