 +---------------------------------------------------------------+
 |                                                               |
 |        ####### #     # ####### ####### ####### ######         |
 |        #     # ##    # #          #    #       #     #        |
 |        #     # # #   # #          #    #       #     #        |
 |        #     # #  #  # #####      #    #####   ######         |
 |        #     # #   # # #          #    #       #              |
 |        #     # #    ## #          #    #       #              |
 |        ####### #     # #######    #    ####### #              |
 |                                                               |
 |        Linear-Scaling Ab Initio Total Energy Program          |
 |                                                               |
 |          Release for academic collaborators of ODG            |
 |                                             Version 6.1.59    |
 | Remote: https://github.com/onetep-devel/onetep.git            |
 | Local branch: master                                          |
 | Commit ID: 3df6b8ca88fa1735659d3248d54c94b50edec21b           |
 | Date: Thu Oct 5 13:49:52 2023 +0200                           |
 | Working tree clean                                            |
 |                                                               |
 +---------------------------------------------------------------+
 |                                                               |
 |  Authors:                                                     |
 |  Jacek Dziedzic, Peter D. Haynes, Nicholas D. M. Hine,        |
 |  Arash A. Mostofi, Mike C. Payne and Chris-Kriton Skylaris    |
 |                                                               |
 |  Contributors:                                                |
 |  J. Aarons, L. Andrinopoulos, P. W. Avraam, R. A. Bell,       |
 |  A. Bhandari, G. A. Bramley, R. J. Charlton, S. J. Clark,     |
 |  R. J. Clements, G. C. Constantinescu, F. Corsetti,           |
 |  N. Corsini, O. Dieguez, S. M. M. Dubois, K. K. B. Duff,      |
 |  J. M. Escartin, M. Escobar Azor, A. Greco,                   |
 |  H. Helal, Q. O. Hill, L. P. Lee, J.-H. Li,                   |
 |  E. B. Linscott, G. Moynihan, D. D. O`Regan,                  |
 |  O. K. Okan, M. J. S. Phipps, C. J. Pickard,                  |
 |  J. C. A. Prentice, M. I. J. Probert, L. E. Ratcliff,         |
 |  M. Robinson, A. Ruiz Serrano, M. dos Santos Dias,            |
 |  J. S. Spencer, E. W. Tait, G. Teobaldi, D. Turban,           |
 |  V. Vitale, K. A. Wilkinson, C. Weber, J. C. Womack,          |
 |  N. Yeung and T. J. Zuehlsdorff                               |
 |                                                               |
 |                                   Copyright (c) 2004-2023     |
 |                                                               |
 |  Please cite:                                                 |
 |  "The ONETEP linear-scaling density functional theory program"|
 |   J. Chem. Phys. 152(17) 174111 (2020)                        |
 |                                                               |
 |          in all publications arising from your use of ONETEP. |
 |                                                               |
 +---------------------------------------------------------------+
 |                                                               |
 |   ONETEP is based on developments described in the following  |
 |   publications:                                               |
 |                                                               |
 |  "Nonorthogonal generalized Wannier function pseudopotential  |
 |   plane-wave method".                                         |
 |   C.-K. Skylaris, A. A. Mostofi, P. D. Haynes, O. Dieguez,    |
 |   M. C. Payne.                                                |
 |   Phys. Rev. B 66 035119 (2002).                              |
 |                                                               |
 |  "Preconditioned iterative minimization for linear-scaling    |
 |   electronic structure calculations".                         |
 |   A. A. Mostofi, P. D. Haynes, C.-K. Skylaris, M. C. Payne.   |
 |   J. Chem. Phys. 119(17), pp.8842-8848 (2003).                |
 |                                                               |
 |  "Total-energy calculations on a real space grid with         |
 |   localized functions and a plane-wave basis".                |
 |   A. A. Mostofi, C.-K. Skylaris, P. D. Haynes, M. C. Payne.   |
 |   Comput. Phys. Commun. 147, pp.788-802 (2002).               |
 |                                                               |
 |  "Accurate kinetic energy evaluation in electronic structure  |
 |   calculations with localized functions on real space grids"  |
 |   C.-K. Skylaris, A. A. Mostofi, P. D. Haynes, C. J. Pickard, |
 |   M. C. Payne.                                                |
 |   Comput. Phys. Commun. 140, pp.315-322 (2001).               |
 |                                                               |
 |  "Accurate ionic forces and geometry optimization in linear-  |
 |   scaling density-functional theory with local orbitals"      |
 |   N. D. M. Hine, M. Robinson, P. D. Haynes, C.-K. Skylaris,   |
 |   M. C. Payne, and A. A. Mostofi.                             |
 |   Phys. Rev. B 83 195102 (2011).                              |
 |                                                               |
 +---------------------------------------------------------------+

Job started: 22-10-2023 11:09 (+0100)
 
Reading parameters from file "graphite.dat" ...... done

If your calculation crashes here, before "Checking processes and threads..."
is displayed, then your stack size is insufficient.
If so, use "ulimit -s unlimited" at runtime.
You can disable this check with "check_stack_size F".

Checking processes and threads...
   Determining the default number of threads...
      No default threads set at compilation time: defaulting to 1.
      OpenMP library call suggests 8 threads.
      Hybrid MPI-OpenMP compilation detected.
      Number of MPI processes > 1.
      OMP_NUM_THREADS environment variable present and
      its value matches the one obtained from the OpenMP library call.
      Using this value as default.
      Default threads: 8
      Default applies to threads_max and threads_num_fftboxes.
      Settings in the input file override this default.
   ... done

   Running with 128 MPI processes.
   There are 16 MPI processes running on the same node as the root process.
   Each MPI process is using: 
               1 threads for simulation cell FFTs.
               1 threads for parallel FFT box operations.
               8 threads for loops over batched FFT box operations.
               8 threads in other parallel regions.
   MPI Interface: S1 (use mpi_f08) (-DMPI -DUSE_MPI_F08).
   MPI_ASYNC_PROTECTS_NONBLOCKING: Yes. MPI_SUBARRAYS_SUPPORTED: Yes.
   GPU Interface: None.
... done

Basic input checks...
Resetting ngwf_cg_rotate to TRUE for EDFT calculations
... done

Reading geometry and species blocks from file "graphite.dat" ...
  Reading POSITIONS geometry from str.xyz

  <species_atomic_set> block not found: NGWF initialisation set to SOLVE
IS: Dielectric excluded regions:
    - NONE.
IS: Assigning soft sphere radii for soft sphere solvation...
IS: No soft sphere radii specified. Default Alvarez radii used for all atoms.

----------- SOFT SPHERE RADII -----------
Li  5.333
C   4.442
-----------------------------------------

    
  Number of PPD points along a3 set to 1.  This is 
  the default value, it may have been provided also in the input file.
... done


--------------------------------------------------------------------------------
---------------------------------- INPUT FILE ----------------------------------
--------------------------------------------------------------------------------

task geometryoptimization                                                       
geom_method LBFGS                                                               
geom_continuation T                                                             
write_xyz T                                                                     
edft_grand_canonical T                                                          
edft_reference_potential  -4.42 eV                                              
edft_electrode_potential -0.1 V                                                 
edft_nelec_thres 0.000001                                                       
is_dielectric_function soft_sphere                                              
is_implicit_solvent T                                                           
is_smeared_ion_rep T                                                            
is_include_apolar T                                                             
is_solvation_properties F                                                       
is_pbe                    full                                                  
is_pbe_temperature        298.15                                                
is_pbe_bc_debye_screening T                                                     
is_pbe_neutralisation_scheme counterions_auto                                   
is_pbe_energy_tolerance 1E+50                                                   
is_bc_coarseness 5                                                              
is_bc_threshold 1E-9                                                            
is_bulk_permittivity 90.7                                                       
is_solvent_surf_tension 0.0506 N/m                                              
%block sol_ions                                                                 
Li  +1 1.0                                                                      
PF6 -1 1.0                                                                      
%endblock sol_ions                                                              
is_steric_pot_type M                                                            
is_hc_steric_dens_isovalue  0.001                                               
is_hc_steric_smearing         0.4 bohr                                          
is_steric_write T                                                               
%block species_solvent_radius                                                   
Li 3.0                                                                          
C 3.0                                                                           
%endblock species_solvent_radius                                                
multigrid_bc:   P P P                                                           
ion_ion_bc:     P P P                                                           
pspot_bc:       P P P                                                           
smeared_ion_bc: P P P                                                           
mg_max_iters_vcycle 500                                                         
mg_vcyc_smoother_iter_pre 4                                                     
mg_vcyc_smoother_iter_post 4                                                    
mg_max_res_ratio 1000.0                                                         
mg_max_iters_newton 300                                                         
edft                    : T                                                     
edft_smearing_width     : 0.1 eV                                                
spin                    : 0.0                                                   
edft_spin_fix           : 2                                                     
spin_polarized          : T                                                     
cutoff_energy :  1000 eV                                                        
kernel_cutoff : 1000 bohr                                                       
xc_functional PBE                                                               
dispersion 4                                                                    
output_detail VERBOSE                                                           
do_properties T                                                                 
cube_format F                                                                   
dx_format F                                                                     
write_denskern T                                                                
write_tightbox_ngwfs T                                                          
write_hamiltonian T                                                             
%block species                                                                  
Li Li 3  5  8.0                                                                 
C  C  6  4  8.0                                                                 
%endblock species                                                               
%block species_pot                                                              
Li '/work/e89/e89/arihant/pseudo/Li.usp'                                        
C '/work/e89/e89/arihant/pseudo/C.usp'                                          
%endblock species_pot                                                           
%BLOCK LATTICE_CART                                                             
ang                                                                             
34.16920551     0.00000000     0.00000000                                       
0.00000000    19.72760000     0.00000000                                        
0.00000000     0.00000000   100.02798000                                        
%ENDBLOCK LATTICE_CART                                                          
positions_xyz_file str.xyz                                                      
     Hash =  -000005862709476141294818

--------------------------------------------------------------------------------
-------------------------------- END INPUT FILE --------------------------------
--------------------------------------------------------------------------------


 
 ESDF WARNING(1): "ispbeenergytolerance" (esdf_physical) has no units. Assume "hartree".
<<<<<<<<<<<<<<<<<<<<<<<<<<<<<<<<< Full system >>>>>>>>>>>>>>>>>>>>>>>>>>>>>>>>>>
<<<<<<<<<<<<<<<<<<<<<<<<< Pseudopotential information >>>>>>>>>>>>>>>>>>>>>>>>>>
File: /work/e89/e89/arihant/pseudo/Li.usp [ 2001 points up to Gmax=  52.9 (1/bohr)]
  Atomic number:  3;  ionic charge:  3.000000
    Shell 1: l = 0; rc = 1.19 bohr
    Shell 2: l = 0; rc = 1.25 bohr
File: /work/e89/e89/arihant/pseudo/C.usp [ 2001 points up to Gmax=  52.9 (1/bohr)]
  Atomic number:  6;  ionic charge:  4.000000
    Shell 1: l = 0; rc = 1.19 bohr
  Core charge supplied for Nonlinear Core Corrections
<<<<<<<<<<<<<<<<<<<<<<<<<<<<<<<<<<<<<<<<>>>>>>>>>>>>>>>>>>>>>>>>>>>>>>>>>>>>>>>>

-------------------------- Atom counting information ---------------------------
Symbol    Natoms    Nngwfs    Nprojs
  Li         5        25        10
  C        512      2048       512
.......   ......    ......    ......
Totals:    517      2073       522
--------------------------------------------------------------------------------

=============================== PSINC grid sizes ===============================
                      Simulation cell:  143 x  91 x 416
                              FFT-box:  117 x  91 x 117
                                  PPD:   11 x   7 x   1
Grid space d1=  0.451541543008a0 (KE cutoff=  37.25706Eh =1013.81618eV)
Grid space d2=  0.409667706512a0 (KE cutoff=  45.26271Eh =1231.66098eV)
Grid space d3=  0.454388192297a0 (KE cutoff=  36.79171Eh =1001.15326eV)
================================================================================
  
WARNING in cell_grid_distribute:
Average of less than one 23-slab per proc, so workload cannot be
equally balanced between procs.

********************* Fourier parallelisation information **********************
       Coarse grid (whole simulation cell) dimensions:    143    91   416
          Real-space ('12') slabs/proc (min max mean):      3     4     3
         Recip-space ('23') slabs/proc (min max mean):      0     1     0
********************************************************************************

********************* Fourier parallelisation information **********************
       Double grid (whole simulation cell) dimensions:    286   182   832
          Real-space ('12') slabs/proc (min max mean):      6     7     6
         Recip-space ('23') slabs/proc (min max mean):      1     2     1
********************************************************************************

********************* Fourier parallelisation information **********************
         Fine grid (whole simulation cell) dimensions:    288   184   832
          Real-space ('12') slabs/proc (min max mean):      6     7     6
         Recip-space ('23') slabs/proc (min max mean):      1     2     1
         Grid scale modified to satisfy multigrid solver grid constraints
         Grid scale values after modifification:         2.01  2.02  2.00
********************************************************************************
ONETEP fine grid is 288 x 184 x 832 gridpoints, 64.5704 x 37.2798 x 189.0255 bohr.
FD multigrid is     288 x 184 x 832 gridpoints, 64.5704 x 37.2798 x 189.0255 bohr.


Atom SCF Calculation for Li : Z (AE atom) =   3 : Z (PS atom) =   3
Config String:
Orbitals (num,occ):  3     2.00 1.00 0.00
Orbitals   (num,l):  3        0    0    1
Real-space Grid (nr,dr,rmax): 1343    0.0059612519    8.0000000000
Spherical Bessel Basis (nsws,lmax,cutoff):   37    1  220.4959463253
Confining potential (l,width,scale):  0    3.0000000000  100.0000000000
Confining potential (l,width,scale):  1    3.0000000000  100.0000000000
  1         -3.7050169094   -5.2301177776    2.5388568852   -0.9989538802
  2         -6.0510920273   -4.2679357854    3.2724001845   -1.3422946715
  3         -6.7975021434   -3.8722499620    3.6648237887   -1.5325279919
  4         -7.0147472228   -3.7673066376    3.7864613280   -1.5966989055
  5         -7.0774132854   -3.7446783348    3.8157063634   -1.6161454686
  6         -7.0951992563   -3.7420177453    3.8204515040   -1.6217593843
  7         -7.1001226024   -3.7430426481    3.8200527077   -1.6233132433
  8         -7.1014239576   -3.7441529610    3.8191274553   -1.6237164860
  9         -7.1017352306   -3.7448434699    3.8184905098   -1.6238077213
 10         -7.1017916056   -3.7452114113    3.8181373932   -1.6238209669
 11         -7.1017908912   -3.7453946820    3.8179578223   -1.6238181917
 12         -7.1017822190   -3.7454828903    3.8178702968   -1.6238141227
 13         -7.1017768840   -3.7455162316    3.8178369316   -1.6238119017
 14         -7.1017732849   -3.7455353767    3.8178176959   -1.6238104459
 15         -7.1017709700   -3.7455463461    3.8178066371   -1.6238095253
 16         -7.1017695244   -3.7455526225    3.8178002910   -1.6238089565
 17         -7.1017686390   -3.7455562110    3.8177966534   -1.6238086105
 18         -7.1017681040   -3.7455582619    3.8177945697   -1.6238084022
 19         -7.1017677838   -3.7455594341    3.8177933764   -1.6238082778
 20         -7.1017675934   -3.7455601042    3.8177926929   -1.6238082039
 21         -7.1017674808   -3.7455604874    3.8177923014   -1.6238081602
 22         -7.1017674145   -3.7455607066    3.8177920771   -1.6238081344
Atom SCF converged after  22 iterations to a total energy of     -7.10176741

Atom SCF Calculation for C  : Z (AE atom) =   6 : Z (PS atom) =   4
Config String:
Orbitals (num,occ):  2     2.00 2.00
Orbitals   (num,l):  2        0    1
Real-space Grid (nr,dr,rmax): 1343    0.0059612519    8.0000000000
Spherical Bessel Basis (nsws,lmax,cutoff):   37    1  220.4959463253
Confining potential (l,width,scale):  0    3.0000000000  100.0000000000
Confining potential (l,width,scale):  1    3.0000000000  100.0000000000
  1         -5.8177092822   -1.2555419264    4.5135233515   -1.7471920893
  2         -5.6032261188   -1.3440047989    4.4246587726   -1.7090653419
  3         -5.5936068668   -1.3561735374    4.4140765627   -1.7034094417
  4         -5.5958505747   -1.3587284552    4.4121342699   -1.7022848669
  5         -5.5969687665   -1.3601698222    4.4109982405   -1.7017057890
  6         -5.5975400979   -1.3609792837    4.4103423276   -1.7013975981
  7         -5.5978435204   -1.3614297943    4.4099696476   -1.7012314972
  8         -5.5980096069   -1.3616786122    4.4097605138   -1.7011416075
  9         -5.5981021113   -1.3618152853    4.4096441572   -1.7010929151
 10         -5.5981539939   -1.3618900852    4.4095797860   -1.7010665406
 11         -5.5981831160   -1.3619309228    4.4095443105   -1.7010522599
 12         -5.5981994243   -1.3619531807    4.4095248124   -1.7010445305
 13         -5.5982085235   -1.3619652972    4.4095141175   -1.7010403487
 14         -5.5982135796   -1.3619718867    4.4095082606   -1.7010380870
 15         -5.5982163780   -1.3619754676    4.4095050573   -1.7010368642
 16         -5.5982179208   -1.3619774123    4.4095033073   -1.7010362032
 17         -5.5982187685   -1.3619784678    4.4095023522   -1.7010358460
 18         -5.5982192328   -1.3619790404    4.4095018314   -1.7010356530
 19         -5.5982194864   -1.3619793509    4.4095015476   -1.7010355488
 20         -5.5982196245   -1.3619795192    4.4095013931   -1.7010354925
 21         -5.5982196995   -1.3619796104    4.4095013090   -1.7010354621
Atom SCF converged after  21 iterations to a total energy of     -5.59821970

BC: Task: GEOMETRYOPTIMIZATION
BC: +++++++++++++++ Summary of boundary conditions ++++++++++++++
BC: |       Component       |     Keyword     |   Periodicity   |
BC: |                       |                 |     X  Y  Z [1] |
BC: |-----------------------------------------------------------|
BC: | Ion-ion               | ion_ion_bc [2]  |     P  P  P     |
BC: | Local pseudopotential | pspot_bc [3]    |     P  P  P     |
BC: | Multigrid solver      | multigrid_bc    |     P  P  P     |
BC: | Smeared ions          | smeared_ion_bc  |     P  P  P     |
BC: | Van der Waals         | vdw_bc          |     P  P  P     |
BC: +++++++++++++++++++++++++++++++++++++++++++++++++++++++++++++
BC: P: Periodic, O: Open.
BC: [1] Not strictly along X, Y, Z but rather along lattice vectors A1, A2, A3.
BC: [2] Also affected by: pbc_correction_cutoff, cutoff_coulomb_type,
BC:     is_smeared_ion_rep, is_implicit_solvent, openbc_ion_ion.
BC: [3] Also affected by: is_smeared_ion_rep, is_implicit_solvent, openbc_pspot.

================================================================================
<<<<<<<<<<<<<<<< Resuming previous ONETEP Geometry Optimisation >>>>>>>>>>>>>>>>
================================================================================

 Geometry Optimisation: output file is "graphite.geom"
 
 Reading continuation file "graphite.continuation" ...done
 Geometry Optimisation: read_tightbox_ngwfs parameter over-ridden to TRUE
 Geometry Optimisation: read_hamiltonian parameter over-ridden to T
 
                           -------------------------------
                                     Cell Contents
                           -------------------------------
 
            xxxxxxxxxxxxxxxxxxxxxxxxxxxxxxxxxxxxxxxxxxxxxxxxxxxxxxxxxxxx
            x  Element    Atom      Absolute co-ordinates of atoms     x
            x            Number        x           y           z       x
            x----------------------------------------------------------x
            x    Li        1       20.473193    6.726884   16.071079   x
            x    Li        2       15.783386    9.435630   16.043844   x
            x    Li        3       20.367940   11.931091   16.131275   x
            x    Li        4       15.886651    4.167147   16.193092   x
            x    Li        5       18.156622    8.144949   21.102598   x
            x    C         6       16.200710    9.200076    6.340861   x
            x    C         7       48.486859   27.839727    6.308686   x
            x    C         8       17.548613    6.869465    6.357299   x
            x    C         9       13.512050    9.199970    6.333679   x
            x    C        10       17.548404   11.530693    6.348028   x
            x    C        11       12.164696   11.530398    6.330008   x
            x    C        12       13.512342   13.860701    6.335964   x
            x    C        13       16.200967   13.861062    6.344933   x
            x    C        14       49.834187   25.509568    6.321093   x
            x    C        15       45.798117   27.839768    6.310955   x
            x    C        16       49.834240   30.169869    6.314746   x
            x    C        17       44.450841   30.169960    6.314501   x
            x    C        18       45.798195   32.500073    6.320968   x
            x    C        19       48.486894   32.500069    6.320730   x
            x    C        20       16.201053    4.538862    6.369354   x
            x    C        21       12.164564    6.869336    6.347455   x
            x    C        22       20.237617    6.869434    6.374222   x
            x    C        23       20.237386   11.530665    6.370278   x
            x    C        24        9.476321   11.530005    6.339784   x
            x    C        25       48.486808   23.179478    6.336143   x
            x    C        26       44.450852   25.509668    6.325538   x
            x    C        27       52.522838   25.509578    6.334088   x
            x    C        28       52.522886   30.169758    6.330685   x
            x    C        29       41.762204   30.169978    6.331894   x
            x    C        30       13.512223    4.538932    6.366602   x
            x    C        31        9.476132    6.869311    6.357797   x
            x    C        32       21.585065    9.200011    6.381482   x
            x    C        33        8.129132    9.199685    6.353228   x
            x    C        34        8.129469   13.860254    6.353559   x
            x    C        35       17.548814   16.191338    6.366296   x
            x    C        36       12.165306   16.190798    6.350522   x
            x    C        37       45.798152   23.179553    6.340993   x
            x    C        38       41.762219   25.509744    6.345035   x
            x    C        39       53.870190   27.839617    6.340476   x
            x    C        40       40.414966   27.839871    6.345344   x
            x    C        41       40.414966   32.500051    6.350416   x
            x    C        42       49.834189   34.830049    6.346607   x
            x    C        43       44.450864   34.830160    6.343177   x
            x    C        44       12.165014    2.208700    6.394637   x
            x    C        45       17.548944    2.208585    6.396417   x
            x    C        46       21.585075    4.539044    6.394724   x
            x    C        47       24.273682    9.200087    6.406539   x
            x    C        48       21.584892   13.861205    6.388157   x
            x    C        49        9.476993   16.190303    6.360158   x
            x    C        50       20.237276   16.191336    6.386253   x
            x    C        51       13.513123   18.520711    6.374477   x
            x    C        52       16.201395   18.521141    6.379886   x
            x    C        53       44.450843   20.849631    6.375755   x
            x    C        54       49.834034   20.849499    6.366019   x
            x    C        55       53.870057   23.179564    6.360156   x
            x    C        56       56.558668   27.839626    6.370988   x
            x    C        57       53.870168   32.499739    6.356469   x
            x    C        58       41.762207   34.830142    6.357718   x
            x    C        59       52.522808   34.829891    6.363439   x
            x    C        60       45.798127   37.160133    6.368858   x
            x    C        61       48.486807   37.160078    6.369881   x
            x    C        62       20.237577    2.208692    6.405138   x
            x    C        63        9.476628    2.209016    6.405868   x
            x    C        64        8.129294    4.539023    6.387737   x
            x    C        65       24.273590    4.539403    6.411597   x
            x    C        66       25.620766    6.869659    6.418060   x
            x    C        67        5.441046    9.199614    6.380758   x
            x    C        68        4.094161   11.529882    6.390962   x
            x    C        69       24.273535   13.860794    6.415503   x
            x    C        70        5.441311   13.859929    6.378846   x
            x    C        71        8.130055   18.520268    6.391260   x
            x    C        72       52.522655   20.849589    6.374566   x
            x    C        73       41.762301   20.849753    6.394962   x
            x    C        74       40.415030   23.179769    6.378153   x
            x    C        75       56.558511   23.179595    6.383674   x
            x    C        76       57.905810   25.509572    6.390470   x
            x    C        77       37.726469   27.839913    6.377342   x
            x    C        78       36.379235   30.169944    6.390055   x
            x    C        79       56.558593   32.499593    6.388183   x
            x    C        80       37.726447   32.499969    6.378516   x
            x    C        81       40.415029   37.160151    6.391706   x
            x    C        82       25.620445    2.209160    6.428877   x
            x    C        83       41.762202    2.210312    6.415406   x
            x    C        84       49.834054    2.210055    6.408167   x
            x    C        85       44.450809    2.210291    6.404974   x
            x    C        86       52.522603    2.209938    6.421303   x
            x    C        87        5.441124    4.539190    6.412246   x
            x    C        88        4.094129    6.869389    6.408271   x
            x    C        89       25.620752   11.530621    6.423992   x
            x    C        90        4.094491   16.190021    6.402131   x
            x    C        91        5.441823   18.519918    6.409400   x
            x    C        92       21.584698   18.521261    6.415886   x
            x    C        93       48.486681   18.519658    6.398510   x
            x    C        94       45.798099   18.519739    6.405021   x
            x    C        95       53.869812   18.519701    6.411159   x
            x    C        96       57.905629   20.849666    6.411766   x
            x    C        97        9.477724   20.850030    6.414405   x
            x    C        98       17.549105   20.850797    6.413309   x
            x    C        99       12.165988   20.850375    6.405814   x
            x    C       100       20.237162   20.850873    6.427592   x
            x    C       101       37.726593   23.179958    6.407748   x
            x    C       102       36.379304   25.509949    6.405245   x
            x    C       103       57.905875   30.169556    6.395508   x
            x    C       104       36.379372   34.830009    6.403278   x
            x    C       105       37.726471   37.159974    6.410940   x
            x    C       106       53.869952   37.159701    6.402429   x
            x    C       107       16.201491   37.158309    6.419953   x
            x    C       108       13.512970   37.158510    6.421246   x
            x    C       109       21.584885   37.158404    6.430853   x
            x    C       110       28.308723    2.209661    6.439883   x
            x    C       111       29.655774    4.539670    6.447212   x
            x    C       112       45.798002    4.540114    6.437367   x
            x    C       113       48.486639    4.539997    6.437194   x
            x    C       114       28.308999    6.869961    6.441150   x
            x    C       115       28.309027   11.530398    6.452325   x
            x    C       116        1.406070   11.529726    6.423952   x
            x    C       117       25.620466   16.190986    6.439149   x
            x    C       118       52.522520   16.189756    6.436606   x
            x    C       119       49.833956   16.189800    6.433670   x
            x    C       120        1.406318   16.189813    6.425597   x
            x    C       121       56.558344   18.519740    6.423254   x
            x    C       122       24.272999   18.520822    6.438799   x
            x    C       123       40.415158   18.520016    6.437392   x
            x    C       124       60.594081   20.849762    6.429701   x
            x    C       125       61.941381   23.179652    6.437164   x
            x    C       126       13.513683   23.180006    6.436670   x
            x    C       127       16.201688   23.180315    6.437606   x
            x    C       128       60.594164   25.509652    6.423803   x
            x    C       129       60.594124   30.169394    6.433703   x
            x    C       130       33.690842   30.169875    6.424340   x
            x    C       131       57.905676   34.829421    6.422579   x
            x    C       132       20.237422   34.828663    6.449834   x
            x    C       133       17.549257   34.828478    6.447367   x
            x    C       134       33.690917   34.829801    6.427343   x
            x    C       135       24.273158   37.159031    6.437656   x
            x    C       136       56.558403   37.159467    6.427243   x
            x    C       137        8.129825   37.158818    6.442991   x
            x    C       138       33.690986    2.209897    6.448422   x
            x    C       139       57.905608    2.209526    6.459177   x
            x    C       140       36.379398    2.210160    6.440832   x
            x    C       141        1.406130    2.209296    6.464592   x
            x    C       142        4.094309    2.209139    6.445802   x
            x    C       143       37.726512    4.540064    6.461542   x
            x    C       144       53.869809    4.539718    6.457599   x
            x    C       145       32.344070    4.540004    6.459371   x
            x    C       146       40.414985    4.540206    6.452432   x
            x    C       147       56.558370    4.539591    6.469151   x
            x    C       148        0.059033    4.539362    6.461156   x
            x    C       149       49.833891    6.869870    6.466661   x
            x    C       150       44.450722    6.870024    6.467604   x
            x    C       151       52.522505    6.869765    6.472304   x
            x    C       152        1.406028    6.869492    6.439352   x
            x    C       153       29.655846    9.200215    6.459580   x
            x    C       154        0.059037    9.199645    6.444517   x
            x    C       155       48.486624   13.859915    6.461902   x
            x    C       156       29.655823   13.860567    6.471024   x
            x    C       157        0.059110   13.859836    6.434841   x
            x    C       158       45.798074   13.859974    6.468071   x
            x    C       159       53.869760   13.859835    6.466387   x
            x    C       160       61.941215   13.859730    6.456078   x
            x    C       161       44.450860   16.189920    6.444813   x
            x    C       162       60.594034   16.189806    6.450134   x
            x    C       163       28.308817   16.190485    6.463512   x
            x    C       164       41.762367   16.190097    6.459687   x
            x    C       165       57.905559   16.189796    6.450636   x
            x    C       166       61.941260   18.519756    6.441445   x
            x    C       167        0.059246   18.519878    6.437897   x
            x    C       168       37.726738   18.520234    6.457801   x
            x    C       169        1.406505   20.849690    6.445693   x
            x    C       170       25.620048   20.850688    6.464246   x
            x    C       171        4.094868   20.849853    6.438983   x
            x    C       172       33.691198   20.850338    6.464428   x
            x    C       173       36.379569   20.850071    6.443404   x
            x    C       174        5.442315   23.179589    6.459600   x
            x    C       175       21.584512   23.180471    6.459362   x
            x    C       176        0.059359   23.179661    6.454377   x
            x    C       177        8.130596   23.179761    6.450668   x
            x    C       178       24.272588   23.180407    6.470977   x
            x    C       179       32.343899   23.180147    6.460866   x
            x    C       180       17.549233   25.509913    6.465595   x
            x    C       181       12.166311   25.509617    6.465774   x
            x    C       182       20.237135   25.510049    6.471734   x
            x    C       183       33.690940   25.510057    6.438434   x
            x    C       184       61.941363   27.839488    6.445484   x
            x    C       185       32.343726   27.839942    6.444336   x
            x    C       186       16.201816   32.498805    6.468358   x
            x    C       187       61.941253   32.499198    6.459293   x
            x    C       188       32.343775   32.499899    6.436079   x
            x    C       189       13.513690   32.498989    6.472559   x
            x    C       190       21.584653   32.499006    6.472411   x
            x    C       191       29.655412   32.499650    6.457819   x
            x    C       192       12.165830   34.828727    6.452915   x
            x    C       193       28.308470   34.829608    6.454211   x
            x    C       194       60.594032   34.829174    6.452375   x
            x    C       195        9.477453   34.829046    6.463782   x
            x    C       196       25.620139   34.829131    6.457591   x
            x    C       197       29.655586   37.159383    6.446372   x
            x    C       198       32.343950   37.159809    6.440571   x
            x    C       199        5.441596   37.159015    6.459954   x
            x    C       200       60.594012    2.209429    6.470870   x
            x    C       201       61.941169    4.539464    6.475403   x
            x    C       202       33.691013    6.870001    6.478141   x
            x    C       203       41.762185    6.870046    6.475555   x
            x    C       204       60.594076    6.869546    6.479450   x
            x    C       205       36.379373    6.870076    6.483846   x
            x    C       206       57.905622    6.869615    6.485095   x
            x    C       207       37.726523    9.200130    6.499465   x
            x    C       208       45.798039    9.200000    6.482333   x
            x    C       209       56.558380    9.199737    6.487663   x
            x    C       210       32.344033    9.200196    6.481248   x
            x    C       211       40.414949    9.200070    6.495297   x
            x    C       212       48.486602    9.199955    6.478949   x
            x    C       213       53.869841    9.199788    6.486358   x
            x    C       214       61.941255    9.199627    6.470158   x
            x    C       215       33.691071   11.530332    6.496147   x
            x    C       216       41.762243   11.530150    6.495461   x
            x    C       217       60.594057   11.529723    6.471525   x
            x    C       218       36.379475   11.530263    6.503424   x
            x    C       219       52.522492   11.529843    6.479923   x
            x    C       220       44.450749   11.530053    6.486048   x
            x    C       221       49.833908   11.529973    6.478910   x
            x    C       222       57.905585   11.529802    6.482258   x
            x    C       223       37.726670   13.860311    6.497881   x
            x    C       224       56.558318   13.859811    6.468228   x
            x    C       225       32.344184   13.860322    6.489460   x
            x    C       226       40.415137   13.860152    6.488756   x
            x    C       227       33.691203   16.190454    6.489319   x
            x    C       228       36.379641   16.190296    6.485459   x
            x    C       229       29.655764   18.520579    6.476079   x
            x    C       230       32.344182   18.520347    6.479500   x
            x    C       231       28.308482   20.850342    6.474292   x
            x    C       232       29.655526   23.180335    6.476251   x
            x    C       233        1.406628   25.509480    6.473886   x
            x    C       234        9.478170   25.509509    6.473499   x
            x    C       235       28.308200   25.510102    6.479538   x
            x    C       236        4.095066   25.509519    6.481526   x
            x    C       237       25.619860   25.510178    6.485173   x
            x    C       238        5.442336   27.839333    6.497296   x
            x    C       239       13.513865   27.839371    6.481021   x
            x    C       240       24.272586   27.839857    6.487562   x
            x    C       241        0.059320   27.839440    6.474100   x
            x    C       242        8.130738   27.839311    6.493579   x
            x    C       243       16.201864   27.839490    6.478130   x
            x    C       244       21.584536   27.839729    6.486046   x
            x    C       245       29.655363   27.839963    6.470300   x
            x    C       246        1.406470   30.169307    6.491268   x
            x    C       247        9.478077   30.169237    6.494678   x
            x    C       248       28.308162   30.169861    6.472314   x
            x    C       249        4.094873   30.169210    6.501038   x
            x    C       250       20.237212   30.169365    6.482006   x
            x    C       251       12.166288   30.169170    6.486434   x
            x    C       252       17.549337   30.169138    6.480869   x
            x    C       253       25.619908   30.169619    6.483454   x
            x    C       254        5.442043   32.499155    6.496832   x
            x    C       255       24.272751   32.499354    6.472632   x
            x    C       256        0.059125   32.499141    6.483435   x
            x    C       257        8.130402   32.499094    6.489259   x
            x    C       258        1.406273   34.829074    6.486676   x
            x    C       259        4.094657   34.828988    6.485131   x
            x    C       260       61.941170   37.159158    6.470956   x
            x    C       261        0.059082   37.158978    6.477290   x
            x    C       262       17.523937    6.909613   12.348011   x
            x    C       263       49.815494   25.552161   12.479161   x
            x    C       264       18.875155    9.245531   12.352836   x
            x    C       265       13.459076    9.252813   12.359889   x
            x    C       266       14.814186   11.595081   12.366050   x
            x    C       267       51.162349   27.882171   12.478265   x
            x    C       268       45.781566   27.882154   12.466683   x
            x    C       269       47.128306   30.211956   12.466102   x
            x    C       270       14.818981    6.910153   12.391093   x
            x    C       271       17.517849   11.591890   12.384698   x
            x    C       272       47.128143   25.552052   12.474768   x
            x    C       273       49.815943   30.212007   12.470805   x
            x    C       274       10.773523    9.246760   12.406144   x
            x    C       275       13.472485   13.926874   12.406995   x
            x    C       276       43.094039   27.882430   12.475056   x
            x    C       277       45.781591   32.541811   12.473265   x
            x    C       278       18.879321    4.566191   12.432471   x
            x    C       279       21.581778    9.246103   12.426235   x
            x    C       280        9.437178   11.581725   12.428801   x
            x    C       281       51.162052   23.222249   12.497741   x
            x    C       282       53.849536   27.882212   12.494495   x
            x    C       283       41.747725   30.212303   12.480380   x
            x    C       284       13.463919    4.568567   12.419624   x
            x    C       285       10.786196   13.913628   12.432302   x
            x    C       286       18.872693   13.931846   12.413395   x
            x    C       287       45.781748   23.222408   12.491621   x
            x    C       288       43.094164   32.541901   12.481526   x
            x    C       289       51.162506   32.541657   12.485469   x
            x    C       290       21.585837    4.562000   12.438117   x
            x    C       291       22.939943    6.904361   12.446800   x
            x    C       292        9.433545    6.910898   12.440634   x
            x    C       293       14.828900   16.251717   12.442178   x
            x    C       294       53.849530   23.222303   12.511330   x
            x    C       295       55.195982   25.552259   12.511874   x
            x    C       296       41.747529   25.552600   12.491789   x
            x    C       297       47.128496   34.871637   12.490154   x
            x    C       298       10.775572    4.576468   12.450899   x
            x    C       299        6.752646   11.577056   12.477188   x
            x    C       300       21.577131   13.928682   12.425101   x
            x    C       301        9.443836   16.242305   12.482683   x
            x    C       302       17.517904   16.259810   12.441626   x
            x    C       303       43.094330   23.222726   12.503253   x
            x    C       304       39.060190   30.212599   12.502652   x
            x    C       305       53.849424   32.541621   12.505791   x
            x    C       306       41.748055   34.871513   12.505522   x
            x    C       307       49.816223   34.871680   12.495500   x
            x    C       308       17.525056    2.223774   12.457783   x
            x    C       309       14.822190    2.227704   12.438054   x
            x    C       310        6.751227    6.911904   12.491921   x
            x    C       311       22.934682   11.586745   12.457827   x
            x    C       312       13.483417   18.576366   12.495701   x
            x    C       313       49.815568   20.892437   12.514142   x
            x    C       314       47.128296   20.892749   12.515252   x
            x    C       315       39.059729   25.552721   12.515488   x
            x    C       316       55.195750   30.211908   12.510220   x
            x    C       317       45.782118   37.201597   12.517052   x
            x    C       318        5.408338    9.245030   12.501436   x
            x    C       319        5.409625   13.907970   12.509671   x
            x    C       320        6.756692   16.237232   12.515415   x
            x    C       321       10.794618   18.570030   12.513725   x
            x    C       322       18.873248   18.579779   12.490912   x
            x    C       323       37.712647   27.882932   12.517927   x
            x    C       324       37.713414   32.542237   12.521475   x
            x    C       325       39.060539   34.872028   12.525725   x
            x    C       326       43.094220   37.201721   12.526204   x
            x    C       327       51.162244   37.201644   12.529135   x
            x    C       328       22.926227    2.233399   12.501586   x
            x    C       329        9.438475    2.243755   12.505641   x
            x    C       330       47.128787    2.251703   12.551449   x
            x    C       331        5.408471    4.579588   12.539286   x
            x    C       332       25.628911    6.910654   12.508737   x
            x    C       333       22.923016   16.255305   12.488774   x
            x    C       334       21.564642   18.578751   12.509138   x
            x    C       335       55.196096   20.892736   12.539655   x
            x    C       336       41.747550   20.893549   12.539103   x
            x    C       337       14.835101   20.902007   12.541897   x
            x    C       338       37.713006   23.223370   12.547887   x
            x    C       339       57.882754   25.552235   12.540310   x
            x    C       340       55.195707   34.871290   12.538048   x
            x    C       341       53.849545   37.201617   12.547555   x
            x    C       342       25.615234    2.245526   12.530610   x
            x    C       343        6.753509    2.249066   12.551993   x
            x    C       344       41.747973    2.252064   12.566031   x
            x    C       345       49.816286    2.251752   12.554919   x
            x    C       346       26.964148    4.577339   12.538094   x
            x    C       347       26.967570    9.245828   12.541516   x
            x    C       348        2.723378    9.244094   12.549176   x
            x    C       349        1.378393   11.574748   12.563556   x
            x    C       350       25.626400   11.579611   12.517676   x
            x    C       351        2.724082   13.904917   12.549435   x
            x    C       352       45.782165   18.563132   12.550795   x
            x    C       353       51.162032   18.562616   12.547496   x
            x    C       354       53.849492   18.562813   12.555898   x
            x    C       355       43.094263   18.563352   12.565648   x
            x    C       356        5.412665   18.566166   12.559035   x
            x    C       357       57.882920   20.893010   12.558965   x
            x    C       358       39.059957   20.893657   12.562931   x
            x    C       359        9.449113   20.897668   12.566613   x
            x    C       360       17.523399   20.904767   12.537938   x
            x    C       361       59.228904   23.222711   12.562497   x
            x    C       362       59.228897   27.882111   12.560196   x
            x    C       363       35.023830   27.883159   12.550685   x
            x    C       364       33.676500   30.213141   12.561368   x
            x    C       365       57.882527   30.211889   12.544103   x
            x    C       366       35.024851   32.542677   12.549874   x
            x    C       367       13.474798   37.178622   12.508221   x
            x    C       368       18.879401   37.179502   12.517476   x
            x    C       369       21.569906   37.186854   12.528556   x
            x    C       370       10.787626   37.192990   12.537888   x
            x    C       371       37.714164   37.201869   12.558270   x
            x    C       372       39.060343    2.252442   12.581263   x
            x    C       373       55.196216    2.251541   12.588289   x
            x    C       374        2.723153    4.581540   12.580540   x
            x    C       375       43.094116    4.582407   12.598554   x
            x    C       376       51.162526    4.581412   12.595385   x
            x    C       377       45.782146    4.581538   12.589526   x
            x    C       378        1.378026    6.912876   12.579462   x
            x    C       379       26.961832   13.911311   12.555398   x
            x    C       380        1.379139   16.234565   12.573364   x
            x    C       381       25.612262   16.242506   12.540198   x
            x    C       382       59.229079   18.563618   12.584353   x
            x    C       383        2.725788   18.564148   12.580537   x
            x    C       384        6.760812   20.895021   12.585043   x
            x    C       385       22.912410   20.902428   12.569448   x
            x    C       386       35.024938   23.223914   12.577646   x
            x    C       387       10.798683   23.225731   12.602647   x
            x    C       388       18.873068   23.229633   12.586549   x
            x    C       389       13.487440   23.228075   12.590174   x
            x    C       390       33.676345   25.553444   12.575441   x
            x    C       391       59.229196   32.541284   12.575819   x
            x    C       392       33.678690   34.872479   12.567928   x
            x    C       393       57.882959   34.871440   12.569758   x
            x    C       394       26.957078   37.197155   12.566946   x
            x    C       395       35.026055   37.201826   12.574974   x
            x    C       396       30.993723    2.250082   12.586390   x
            x    C       397        1.377768    2.250968   12.614220   x
            x    C       398       33.681128    2.251987   12.595407   x
            x    C       399       57.883509    2.252257   12.607933   x
            x    C       400       29.651183    4.580838   12.578258   x
            x    C       401       61.916629    4.582358   12.625277   x
            x    C       402       53.849945    4.581495   12.606767   x
            x    C       403       63.262639    6.912652   12.612165   x
            x    C       404       30.995301    6.912065   12.608048   x
            x    C       405       49.816308    6.911645   12.620482   x
            x    C       406       47.128361    6.911883   12.621300   x
            x    C       407       29.652623    9.244746   12.596399   x
            x    C       408       61.917326    9.242941   12.617403   x
            x    C       409       63.262995   11.573122   12.598856   x
            x    C       410       59.230024   13.903020   12.617145   x
            x    C       411       61.916941   13.903093   12.603680   x
            x    C       412       49.816112   16.232713   12.579677   x
            x    C       413       47.128612   16.232951   12.584232   x
            x    C       414       55.195891   16.233120   12.591602   x
            x    C       415       41.748089   16.233471   12.611727   x
            x    C       416       57.883343   16.233076   12.597667   x
            x    C       417       63.262730   16.233641   12.592870   x
            x    C       418       61.915975   18.563480   12.591954   x
            x    C       419       37.713983   18.564513   12.606292   x
            x    C       420       26.954449   18.569583   12.588693   x
            x    C       421       63.262479   20.893513   12.598269   x
            x    C       422       33.678752   20.894773   12.608259   x
            x    C       423        1.379644   20.893602   12.603849   x
            x    C       424       25.603044   20.898520   12.593098   x
            x    C       425       61.915505   23.222781   12.591244   x
            x    C       426       29.639874   23.225296   12.615806   x
            x    C       427       21.562020   23.229877   12.594804   x
            x    C       428       30.986733   25.554588   12.603759   x
            x    C       429       63.262565   25.552563   12.613999   x
            x    C       430       17.524701   25.555728   12.617866   x
            x    C       431       14.836446   25.554462   12.623168   x
            x    C       432       61.915663   27.882441   12.601642   x
            x    C       433       29.638754   27.884037   12.607877   x
            x    C       434       30.987185   30.212997   12.591272   x
            x    C       435       26.951406   32.540968   12.606681   x
            x    C       436       29.641373   32.542555   12.593898   x
            x    C       437       17.524359   34.857137   12.559791   x
            x    C       438       14.833629   34.857978   12.563475   x
            x    C       439       22.915079   34.863506   12.578581   x
            x    C       440        9.445329   34.865696   12.608324   x
            x    C       441       25.605805   34.868861   12.583900   x
            x    C       442       30.990192   34.871465   12.583090   x
            x    C       443       29.646306   37.200781   12.578246   x
            x    C       444        5.410117   37.198905   12.607813   x
            x    C       445       59.229235   37.201473   12.603087   x
            x    C       446       63.261788    2.251768   12.626795   x
            x    C       447       59.230226    4.582048   12.629508   x
            x    C       448       37.714509    4.582583   12.619238   x
            x    C       449       35.027120    4.581843   12.620966   x
            x    C       450       57.884303    6.912069   12.637383   x
            x    C       451       55.196786    6.911587   12.635021   x
            x    C       452       33.682341    6.912454   12.636513   x
            x    C       453       39.060102    6.912694   12.647100   x
            x    C       454       41.747466    6.912611   12.637356   x
            x    C       455       43.093801    9.242852   12.653586   x
            x    C       456       45.781823    9.242663   12.642938   x
            x    C       457       59.230922    9.242293   12.637124   x
            x    C       458       53.850265    9.242290   12.641081   x
            x    C       459       51.162465    9.242406   12.638458   x
            x    C       460       55.196470   11.572992   12.637487   x
            x    C       461       49.816161   11.572917   12.633740   x
            x    C       462       47.128475   11.573034   12.638914   x
            x    C       463       30.994733   11.576721   12.629268   x
            x    C       464       57.884108   11.572474   12.633778   x
            x    C       465       53.849593   13.902992   12.615367   x
            x    C       466       51.162199   13.902953   12.613456   x
            x    C       467       45.782012   13.903193   12.621968   x
            x    C       468       43.094082   13.902796   12.636509   x
            x    C       469       29.649312   13.907152   12.610196   x
            x    C       470       39.060383   16.234133   12.630871   x
            x    C       471       33.680657   16.235765   12.646118   x
            x    C       472       30.992380   16.237121   12.631044   x
            x    C       473       29.644235   18.566382   12.617387   x
            x    C       474       35.026174   18.565296   12.624302   x
            x    C       475       30.989531   20.895760   12.619494   x
            x    C       476       26.949514   23.226722   12.618455   x
            x    C       477        5.415141   23.224005   12.625862   x
            x    C       478        2.727191   23.223199   12.627931   x
            x    C       479       25.600499   25.555686   12.625810   x
            x    C       480       22.910725   25.556211   12.625340   x
            x    C       481        1.379860   25.552691   12.641109   x
            x    C       482        6.762989   25.552879   12.654089   x
            x    C       483        9.451284   25.553499   12.644028   x
            x    C       484       10.799284   27.881430   12.660861   x
            x    C       485       13.487919   27.880880   12.648272   x
            x    C       486       26.948931   27.883835   12.626405   x
            x    C       487       21.562194   27.883150   12.634369   x
            x    C       488       18.873441   27.881923   12.636209   x
            x    C       489       22.911342   30.210402   12.630938   x
            x    C       490       17.524925   30.207857   12.633854   x
            x    C       491       14.836362   30.207504   12.642883   x
            x    C       492       63.262034   30.212114   12.629837   x
            x    C       493       25.601450   30.212215   12.623947   x
            x    C       494       21.563422   32.536384   12.608796   x
            x    C       495       18.874411   32.533842   12.608347   x
            x    C       496       13.485700   32.533586   12.621041   x
            x    C       497       10.796666   32.538093   12.639798   x
            x    C       498       61.915605   32.541688   12.615457   x
            x    C       499        6.757570   34.869882   12.634689   x
            x    C       500        1.377829   34.870745   12.650343   x
            x    C       501       63.261712   34.871071   12.635096   x
            x    C       502       61.915963   37.201219   12.624668   x
            x    C       503        2.723584   37.200439   12.629747   x
            x    C       504       35.027448    9.243395   12.663151   x
            x    C       505       37.714741    9.243193   12.669300   x
            x    C       506       39.060426   11.573369   12.672234   x
            x    C       507       41.747672   11.573093   12.661154   x
            x    C       508       33.682208   11.574776   12.661065   x
            x    C       509       37.714968   13.904030   12.662964   x
            x    C       510       35.027163   13.905292   12.664254   x
            x    C       511        2.726885   27.882532   12.666502   x
            x    C       512        5.415256   27.881730   12.675479   x
            x    C       513        6.761696   30.211192   12.679658   x
            x    C       514        9.450387   30.209649   12.669062   x
            x    C       515        1.378566   30.211846   12.662092   x
            x    C       516        5.412464   32.540360   12.669768   x
            x    C       517        2.724713   32.541404   12.668168   x
            xxxxxxxxxxxxxxxxxxxxxxxxxxxxxxxxxxxxxxxxxxxxxxxxxxxxxxxxxxxx
 

LBFGS: continuation file name is "graphite.continuation"
 LBFGS: Restarting previous  geometry optimization.
 avg_mass=  21804.790539628921
 Enthalpy contributions:
                  total energy=  -2.75112696E+003 Eh
        diagonal pressure term=   0.00000000E+000 Eh
    off-diagonal pressure term=   0.00000000E+000 Eh
 LBFGS: finished iteration   0  with enthalpy= -2.751126961873E+003 Eh
  
 +-----------+-----------------+-----------------+------------+-----+ <-- LBFGS
 | Parameter |      value      |    tolerance    |    units   | OK? | <-- LBFGS
 +-----------+-----------------+-----------------+------------+-----+ <-- LBFGS
 |  dE/ion   |   0.000000E+000 |   1.000000E-006 |         Eh | No  | <-- LBFGS
 |  |F|max   |   2.070749E-003 |   2.000000E-003 |    Eh/Bohr | No  | <-- LBFGS
 |  |dR|max  |   0.000000E+000 |   5.000000E-003 |       Bohr | No  | <-- LBFGS
 +-----------+-----------------+-----------------+------------+-----+ <-- LBFGS
  

================================================================================
 Starting LBFGS iteration    1 ...
================================================================================
 Writing xyz coordinates to file "graphite.xyz" ... done

 Writing continuation file "graphite.continuation" ...done
 Backing up NGWFs to file "graphite.tightbox_ngwfs.bfgs_back" ... done
 Backing up Hamiltonian to file "graphite.ham.bfgs_back" ... done
  
 +------------+-------------+-------------+-----------------+ <-- min LBFGS
 |    Step    |   lambda    |   F.delta   |    enthalpy     | <-- min LBFGS
 +------------+-------------+-------------+-----------------+ <-- min LBFGS
 |  previous  |    0.000000 |    0.000065 |    -2751.126962 | <-- min LBFGS
 +------------+-------------+-------------+-----------------+ <-- min LBFGS
  

--------------------------------------------------------------------------------
 LBFGS: starting iteration   1 with trial guess (lambda=    1.000000)
--------------------------------------------------------------------------------
 
                           -------------------------------
                                     Cell Contents
                           -------------------------------
 
            xxxxxxxxxxxxxxxxxxxxxxxxxxxxxxxxxxxxxxxxxxxxxxxxxxxxxxxxxxxx
            x  Element    Atom      Absolute co-ordinates of atoms     x
            x            Number        x           y           z       x
            x----------------------------------------------------------x
            x    Li        1       20.473846    6.726642   16.071802   x
            x    Li        2       15.783712    9.436573   16.044566   x
            x    Li        3       20.369917   11.935231   16.130782   x
            x    Li        4       15.883943    4.165236   16.192114   x
            x    Li        5       18.153858    8.144583   21.091880   x
            x    C         6       16.200608    9.200228    6.340818   x
            x    C         7       48.486740   27.839772    6.308690   x
            x    C         8       17.548507    6.869452    6.357287   x
            x    C         9       13.511910    9.199997    6.333660   x
            x    C        10       17.548453   11.530902    6.348007   x
            x    C        11       12.164560   11.530534    6.329998   x
            x    C        12       13.512321   13.860891    6.335983   x
            x    C        13       16.200938   13.861281    6.344940   x
            x    C        14       49.834101   25.509628    6.321182   x
            x    C        15       45.798033   27.839793    6.310978   x
            x    C        16       49.834162   30.169912    6.314797   x
            x    C        17       44.450729   30.170013    6.314517   x
            x    C        18       45.798106   32.500140    6.321031   x
            x    C        19       48.486779   32.500107    6.320777   x
            x    C        20       16.200845    4.538784    6.369422   x
            x    C        21       12.164364    6.869290    6.347481   x
            x    C        22       20.237550    6.869551    6.374308   x
            x    C        23       20.237379   11.530949    6.370345   x
            x    C        24        9.476181   11.530065    6.339836   x
            x    C        25       48.486682   23.179536    6.336263   x
            x    C        26       44.450706   25.509696    6.325597   x
            x    C        27       52.522709   25.509636    6.334203   x
            x    C        28       52.522787   30.169815    6.330779   x
            x    C        29       41.762085   30.170009    6.331990   x
            x    C        30       13.512082    4.538849    6.366664   x
            x    C        31        9.475975    6.869297    6.357904   x
            x    C        32       21.585074    9.200244    6.381561   x
            x    C        33        8.128969    9.199698    6.353312   x
            x    C        34        8.129350   13.860371    6.353658   x
            x    C        35       17.548872   16.191469    6.366403   x
            x    C        36       12.165197   16.190961    6.350598   x
            x    C        37       45.798055   23.179600    6.341139   x
            x    C        38       41.762093   25.509778    6.345179   x
            x    C        39       53.870109   27.839676    6.340628   x
            x    C        40       40.414815   27.839903    6.345464   x
            x    C        41       40.414827   32.500124    6.350550   x
            x    C        42       49.834113   34.830080    6.346763   x
            x    C        43       44.450723   34.830233    6.343302   x
            x    C        44       12.164876    2.208637    6.394813   x
            x    C        45       17.548800    2.208464    6.396569   x
            x    C        46       21.585058    4.538989    6.394891   x
            x    C        47       24.273655    9.200264    6.406714   x
            x    C        48       21.584901   13.861414    6.388283   x
            x    C        49        9.476939   16.190429    6.360322   x
            x    C        50       20.237227   16.191434    6.386427   x
            x    C        51       13.513116   18.520808    6.374687   x
            x    C        52       16.201336   18.521207    6.380069   x
            x    C        53       44.450698   20.849675    6.375982   x
            x    C        54       49.833954   20.849544    6.366251   x
            x    C        55       53.869988   23.179605    6.360378   x
            x    C        56       56.558585   27.839678    6.371216   x
            x    C        57       53.870112   32.499794    6.356660   x
            x    C        58       41.762107   34.830190    6.357902   x
            x    C        59       52.522693   34.829908    6.363645   x
            x    C        60       45.798028   37.160172    6.369077   x
            x    C        61       48.486652   37.160115    6.370102   x
            x    C        62       20.237410    2.208582    6.405323   x
            x    C        63        9.476554    2.209005    6.406127   x
            x    C        64        8.129154    4.539016    6.387935   x
            x    C        65       24.273595    4.539440    6.411818   x
            x    C        66       25.620813    6.869776    6.418341   x
            x    C        67        5.440919    9.199612    6.380984   x
            x    C        68        4.094052   11.529906    6.391178   x
            x    C        69       24.273397   13.860948    6.415727   x
            x    C        70        5.441215   13.859996    6.379072   x
            x    C        71        8.129970   18.520359    6.391485   x
            x    C        72       52.522533   20.849623    6.374810   x
            x    C        73       41.762198   20.849837    6.395232   x
            x    C        74       40.414909   23.179829    6.378374   x
            x    C        75       56.558446   23.179659    6.383933   x
            x    C        76       57.905792   25.509629    6.390753   x
            x    C        77       37.726364   27.839949    6.377570   x
            x    C        78       36.379127   30.169984    6.390272   x
            x    C        79       56.558503   32.499638    6.388431   x
            x    C        80       37.726334   32.499997    6.378749   x
            x    C        81       40.414921   37.160184    6.391947   x
            x    C        82       25.620435    2.209114    6.429184   x
            x    C        83       41.762119    2.210303    6.415727   x
            x    C        84       49.833971    2.210126    6.408477   x
            x    C        85       44.450670    2.210331    6.405241   x
            x    C        86       52.522490    2.209991    6.421594   x
            x    C        87        5.441040    4.539237    6.412532   x
            x    C        88        4.094036    6.869398    6.408508   x
            x    C        89       25.620704   11.530817    6.424271   x
            x    C        90        4.094370   16.190117    6.402388   x
            x    C        91        5.441799   18.520015    6.409703   x
            x    C        92       21.584689   18.521288    6.416177   x
            x    C        93       48.486538   18.519695    6.398778   x
            x    C        94       45.798004   18.519802    6.405334   x
            x    C        95       53.869757   18.519725    6.411483   x
            x    C        96       57.905593   20.849683    6.412104   x
            x    C        97        9.477692   20.850091    6.414711   x
            x    C        98       17.549106   20.850822    6.413605   x
            x    C        99       12.165872   20.850410    6.406053   x
            x    C       100       20.237090   20.850859    6.427858   x
            x    C       101       37.726499   23.180030    6.408037   x
            x    C       102       36.379207   25.510016    6.405485   x
            x    C       103       57.905807   30.169612    6.395794   x
            x    C       104       36.379283   34.830041    6.403531   x
            x    C       105       37.726407   37.159978    6.411252   x
            x    C       106       53.869910   37.159746    6.402735   x
            x    C       107       16.201286   37.158252    6.420174   x
            x    C       108       13.512887   37.158460    6.421517   x
            x    C       109       21.584855   37.158307    6.431133   x
            x    C       110       28.308662    2.209703    6.440188   x
            x    C       111       29.655734    4.539739    6.447575   x
            x    C       112       45.797929    4.540141    6.437727   x
            x    C       113       48.486502    4.540074    6.437509   x
            x    C       114       28.308989    6.870024    6.441445   x
            x    C       115       28.308916   11.530494    6.452618   x
            x    C       116        1.405962   11.529778    6.424275   x
            x    C       117       25.620354   16.191085    6.439471   x
            x    C       118       52.522409   16.189823    6.436916   x
            x    C       119       49.833904   16.189854    6.434025   x
            x    C       120        1.406201   16.189861    6.425944   x
            x    C       121       56.558242   18.519785    6.423549   x
            x    C       122       24.272864   18.520867    6.439070   x
            x    C       123       40.415047   18.520062    6.437681   x
            x    C       124       60.594009   20.849843    6.430020   x
            x    C       125       61.941331   23.179712    6.437528   x
            x    C       126       13.513650   23.180050    6.437014   x
            x    C       127       16.201604   23.180346    6.437895   x
            x    C       128       60.594098   25.509698    6.424106   x
            x    C       129       60.594039   30.169418    6.433992   x
            x    C       130       33.690782   30.169899    6.424635   x
            x    C       131       57.905614   34.829487    6.422913   x
            x    C       132       20.237249   34.828661    6.450109   x
            x    C       133       17.549148   34.828491    6.447684   x
            x    C       134       33.690869   34.829769    6.427677   x
            x    C       135       24.273058   37.158984    6.437917   x
            x    C       136       56.558321   37.159483    6.427537   x
            x    C       137        8.129738   37.158799    6.443283   x
            x    C       138       33.690916    2.209954    6.448796   x
            x    C       139       57.905550    2.209589    6.459551   x
            x    C       140       36.379330    2.210180    6.441154   x
            x    C       141        1.406056    2.209329    6.464953   x
            x    C       142        4.094225    2.209176    6.446110   x
            x    C       143       37.726428    4.540099    6.461911   x
            x    C       144       53.869763    4.539811    6.457964   x
            x    C       145       32.343989    4.540084    6.459718   x
            x    C       146       40.414885    4.540230    6.452754   x
            x    C       147       56.558272    4.539640    6.469485   x
            x    C       148        0.058959    4.539384    6.461480   x
            x    C       149       49.833839    6.869916    6.467046   x
            x    C       150       44.450604    6.870058    6.467946   x
            x    C       151       52.522367    6.869820    6.472639   x
            x    C       152        1.405954    6.869536    6.439699   x
            x    C       153       29.655783    9.200307    6.459931   x
            x    C       154        0.058942    9.199695    6.444826   x
            x    C       155       48.486476   13.859971    6.462243   x
            x    C       156       29.655725   13.860699    6.471386   x
            x    C       157        0.058974   13.859901    6.435144   x
            x    C       158       45.797983   13.860046    6.468446   x
            x    C       159       53.869717   13.859884    6.466753   x
            x    C       160       61.941127   13.859789    6.456443   x
            x    C       161       44.450720   16.189968    6.445127   x
            x    C       162       60.593940   16.189881    6.450463   x
            x    C       163       28.308618   16.190573    6.463833   x
            x    C       164       41.762275   16.190155    6.460045   x
            x    C       165       57.905515   16.189834    6.450997   x
            x    C       166       61.941187   18.519793    6.441813   x
            x    C       167        0.059118   18.519956    6.438220   x
            x    C       168       37.726638   18.520284    6.458157   x
            x    C       169        1.406416   20.849773    6.446066   x
            x    C       170       25.619958   20.850693    6.464591   x
            x    C       171        4.094756   20.849938    6.439299   x
            x    C       172       33.691092   20.850369    6.464769   x
            x    C       173       36.379467   20.850137    6.443704   x
            x    C       174        5.442270   23.179671    6.459959   x
            x    C       175       21.584495   23.180469    6.459693   x
            x    C       176        0.059238   23.179747    6.454705   x
            x    C       177        8.130488   23.179805    6.450982   x
            x    C       178       24.272478   23.180390    6.471267   x
            x    C       179       32.343754   23.180199    6.461162   x
            x    C       180       17.549196   25.509955    6.465950   x
            x    C       181       12.166190   25.509681    6.466106   x
            x    C       182       20.237031   25.510046    6.472034   x
            x    C       183       33.690874   25.510123    6.438750   x
            x    C       184       61.941301   27.839502    6.445837   x
            x    C       185       32.343610   27.840010    6.444611   x
            x    C       186       16.201621   32.498855    6.468677   x
            x    C       187       61.941182   32.499271    6.459658   x
            x    C       188       32.343665   32.499904    6.436359   x
            x    C       189       13.513593   32.499067    6.472923   x
            x    C       190       21.584626   32.499049    6.472737   x
            x    C       191       29.655345   32.499652    6.458157   x
            x    C       192       12.165698   34.828738    6.453217   x
            x    C       193       28.308322   34.829599    6.454525   x
            x    C       194       60.593937   34.829228    6.452691   x
            x    C       195        9.477442   34.829052    6.464123   x
            x    C       196       25.620086   34.829100    6.457915   x
            x    C       197       29.655518   37.159370    6.446726   x
            x    C       198       32.343876   37.159819    6.440900   x
            x    C       199        5.441542   37.159054    6.460305   x
            x    C       200       60.593926    2.209453    6.471204   x
            x    C       201       61.941085    4.539517    6.475784   x
            x    C       202       33.690918    6.870078    6.478524   x
            x    C       203       41.762096    6.870090    6.475927   x
            x    C       204       60.593967    6.869581    6.479790   x
            x    C       205       36.379265    6.870122    6.484192   x
            x    C       206       57.905552    6.869668    6.485463   x
            x    C       207       37.726418    9.200209    6.499847   x
            x    C       208       45.797966    9.200040    6.482725   x
            x    C       209       56.558269    9.199784    6.487991   x
            x    C       210       32.343938    9.200241    6.481594   x
            x    C       211       40.414835    9.200129    6.495637   x
            x    C       212       48.486476    9.199979    6.479301   x
            x    C       213       53.869788    9.199814    6.486744   x
            x    C       214       61.941161    9.199677    6.470521   x
            x    C       215       33.690986   11.530403    6.496518   x
            x    C       216       41.762149   11.530221    6.495852   x
            x    C       217       60.593971   11.529810    6.471858   x
            x    C       218       36.379370   11.530307    6.503762   x
            x    C       219       52.522374   11.529887    6.480264   x
[...]
 C    19 -- C    57       -0.08      0.00      5.38359
 C   133 -- C   192       -0.08      0.00      5.38359
 C   452 -- C   463       -0.08      0.00      5.38362
 C     7 -- C    39       -0.08      0.00      5.38364
 C    35 -- C    36       -0.08      0.00      5.38376
 C   363 -- C   433       -0.08      0.00      5.38384
 C    52 -- C    92       -0.08     -0.00      5.38387
 C    50 -- C   117       -0.08      0.00      5.38387
 C    10 -- C    11       -0.08     -0.00      5.38392
 C   293 -- C   301       -0.08      0.00      5.38394
 C   497 -- C   516       -0.08      0.00      5.38397
 C    23 -- C    89       -0.08     -0.00      5.38397
 C   484 -- C   512       -0.08      0.00      5.38412
 C    44 -- C    45       -0.08      0.00      5.38415
 C     8 -- C    21       -0.08     -0.00      5.38424
 C    20 -- C    46       -0.08     -0.00      5.38426
 C   381 -- C   385       -0.08     -0.00      5.38439
 C   300 -- C   379       -0.08      0.00      5.38441
 C   270 -- C   292       -0.08     -0.00      5.38461
 C    13 -- C    48       -0.08     -0.00      5.38464
 C   343 -- C   440       -0.08     -0.00      5.38465
 C     6 -- C    32       -0.08      0.00      5.38485
 C   434 -- C   493       -0.08     -0.00      5.38493
 C   424 -- C   475       -0.08      0.00      5.38527
 C   428 -- C   479       -0.08      0.00      5.38528
 C   431 -- C   483       -0.08     -0.00      5.38529
 C   420 -- C   469       -0.08     -0.00      5.38531
 C   369 -- C   394       -0.08     -0.00      5.38537
 C   299 -- C   301       -0.08      0.00      5.38562
 C   279 -- C   347       -0.08      0.00      5.38566
 C   337 -- C   359       -0.08      0.00      5.38575
 C   394 -- C   400       -0.08      0.00      5.38584
 C   285 -- C   312       -0.08     -0.00      5.38593
 C   491 -- C   514       -0.08     -0.00      5.38601
 C   342 -- C   439       -0.08     -0.00      5.38605
 C   486 -- C   487       -0.08      0.00      5.38611
 C   485 -- C   488       -0.08      0.00      5.38615
 C   430 -- C   480       -0.08      0.00      5.38646
 C   435 -- C   494       -0.08      0.00      5.38675
 C   388 -- C   389       -0.08     -0.00      5.38685
 C   489 -- C   490       -0.08     -0.00      5.38704
 C   427 -- C   476       -0.08     -0.00      5.38705
 C   346 -- C   407       -0.08     -0.00      5.38708
 C   310 -- C   329       -0.08     -0.00      5.38708
 C   379 -- C   407       -0.08     -0.00      5.38723
 C   280 -- C   310       -0.08      0.00      5.38724
 C   438 -- C   440       -0.08      0.00      5.38795
 C   495 -- C   496       -0.08      0.00      5.38885
 C   360 -- C   385       -0.08      0.00      5.38949
 C   334 -- C   420       -0.08     -0.00      5.38975
 C   290 -- C   368       -0.08      0.00      5.39003
 C   312 -- C   322       -0.08     -0.00      5.39045
 C   437 -- C   439       -0.08      0.00      5.39069
 C   265 -- C   298       -0.08     -0.00      5.39146
 C   266 -- C   302       -0.08      0.00      5.39146
 C   291 -- C   350       -0.08      0.00      5.39229
 C   274 -- C   284       -0.08     -0.00      5.39596
 C   311 -- C   332       -0.08     -0.00      5.39616
 C   275 -- C   286       -0.08      0.00      5.39886
 C   308 -- C   328       -0.08      0.00      5.39974
 C   298 -- C   367       -0.08      0.00      5.39999
 C   333 -- C   350       -0.08      0.00      5.40068
 C   328 -- C   332       -0.08     -0.00      5.40160
 C   274 -- C   275       -0.08     -0.00      5.40206
 C   367 -- C   368       -0.08     -0.00      5.40294
 C   270 -- C   271       -0.07     -0.00      5.40390
 C   278 -- C   279       -0.07     -0.00      5.40400
 C   302 -- C   333       -0.08      0.00      5.40442
 C   262 -- C   309       -0.07     -0.00      5.40636
 C   264 -- C   300       -0.07     -0.00      5.40799
 C   270 -- C   308       -0.07     -0.00      5.40956
 C   264 -- C   290       -0.07     -0.00      5.41022
 C   279 -- C   286       -0.07     -0.00      5.41106
 C   262 -- C   266       -0.07     -0.00      5.41126
 C   278 -- C   284       -0.07     -0.00      5.41263
 C   264 -- C   265       -0.07      0.00      5.41355
 C   262 -- C   291       -0.07     -0.00      5.41392
 C   271 -- C   311       -0.07     -0.00      5.41447
 Li    1 -- Li    2        0.16     -0.00      5.42789
 Li    2 -- Li    5        0.21     -0.00      5.54922
 Li    1 -- Li    5        0.21     -0.00      5.57609
=============================================================


============== Orbital energy and occupancy information for spin 1 =============

      Total number of orbitals:    2073
        Occupancy sum (kernel):    1029.899991788
   Occupancy sum (eigenvalues):    1029.899991788
                 HOMO-LUMO gap:       0.024509037 Eh
                 Mid-gap level:      -0.156388241 Eh

                        Orbital | Energy (Eh) | Occupancy
                            1    -1.925626494   1.0000000
                        .......   ...........   .........
                         1021    -0.190179403   0.9998057
                         1022    -0.186195346   0.9994273
                         1023    -0.186178812   0.9994245
                         1024    -0.185720966   0.9993477
                         1025    -0.185686322   0.9993414
                         1026    -0.184933863   0.9991929
                         1027    -0.184922133   0.9991903
                         1028    -0.178984273   0.9957542
                         1029    -0.168669584   0.9367507
                         1030    -0.168642759   0.9363252
                        ....... -- gap at 0K -- .........
                         1031    -0.144133722   0.0180430
                         1032    -0.143656829   0.0159380
                         1033    -0.130874074   0.0004931
                         1034    -0.130294324   0.0004199
                         1035    -0.129104171   0.0003085
                         1036    -0.128776773   0.0002827
                         1037    -0.122464956   0.0000514
                         1038    -0.122198576   0.0000479
                         1039    -0.120695940   0.0000319
                         1040    -0.120461402   0.0000300
                        .......   ...........   .........
                         2073     0.760885616   0.0000000

================================================================================

============== Orbital energy and occupancy information for spin 2 =============

      Total number of orbitals:    2073
        Occupancy sum (kernel):    1029.899991792
   Occupancy sum (eigenvalues):    1029.899991792
                 HOMO-LUMO gap:       0.024509037 Eh
                 Mid-gap level:      -0.156388241 Eh

                        Orbital | Energy (Eh) | Occupancy
                            1    -1.925626494   1.0000000
                        .......   ...........   .........
                         1021    -0.190179403   0.9998057
                         1022    -0.186195346   0.9994273
                         1023    -0.186178812   0.9994245
                         1024    -0.185720966   0.9993477
                         1025    -0.185686322   0.9993414
                         1026    -0.184933863   0.9991929
                         1027    -0.184922133   0.9991903
                         1028    -0.178984273   0.9957542
                         1029    -0.168669584   0.9367507
                         1030    -0.168642759   0.9363252
                        ....... -- gap at 0K -- .........
                         1031    -0.144133722   0.0180430
                         1032    -0.143656829   0.0159380
                         1033    -0.130874074   0.0004931
                         1034    -0.130294324   0.0004199
                         1035    -0.129104171   0.0003085
                         1036    -0.128776773   0.0002827
                         1037    -0.122464956   0.0000514
                         1038    -0.122198576   0.0000479
                         1039    -0.120695940   0.0000319
                         1040    -0.120461402   0.0000300
                        .......   ...........   .........
                         2073     0.760885616   0.0000000

================================================================================

===================== Writing canonical molecular orbitals =====================
    Spin 1
| Orbital  Energy (eV)  Norm     |
| HOMO-5   -5.05278193  1.000000 | 
| HOMO-4   -5.03230648  1.000000 | 
| HOMO-3   -5.03198727  1.000000 | 
| HOMO-2   -4.87040990  1.000000 | 
| HOMO-1   -4.58973293  1.000000 | 
| HOMO     -4.58900298  1.000000 | 
| LUMO     -3.92207814  1.000000 | 
| LUMO+1   -3.90910123  1.000000 | 
| LUMO+2   -3.56126475  1.000000 | 
| LUMO+3   -3.54548896  1.000000 | 
| LUMO+4   -3.51310325  1.000000 | 
| LUMO+5   -3.50419429  1.000000 | 
================================================================================

===================== Writing canonical molecular orbitals =====================
    Spin 2
| Orbital  Energy (eV)  Norm     |
| HOMO-5   -5.05278193  1.000000 | 
| HOMO-4   -5.03230648  1.000000 | 
| HOMO-3   -5.03198727  1.000000 | 
| HOMO-2   -4.87040990  1.000000 | 
| HOMO-1   -4.58973293  1.000000 | 
| HOMO     -4.58900298  1.000000 | 
| LUMO     -3.92207814  1.000000 | 
| LUMO+1   -3.90910123  1.000000 | 
| LUMO+2   -3.56126475  1.000000 | 
| LUMO+3   -3.54548896  1.000000 | 
| LUMO+4   -3.51310325  1.000000 | 
| LUMO+5   -3.50419429  1.000000 | 
================================================================================
 
=============== Density of States (DOS) calculation for UP spin ================
Writing "graphite_UP_DOS.txt" ... done
================================================================================
 
============== Density of States (DOS) calculation for DOWN spin ===============
Writing "graphite_DN_DOS.txt" ... done
================================================================================
 
Writing bands to file "graphite.val_bands" ... done

IS: Calculating electrolyte contribution to the atomic forces ...
================================================================================
 
***********************************************************
********** Summary of Forces (values in Eh/a) *************
*                                                         *
* ---------------------- Minimum ------------------------ *
* Atom:       179, |F|min =    0.00002047                 *
* Components:     Fx|min       Fy|min       Fz|min        *
*               0.00001729  -0.00000565   0.00000940      *
*                                                         *
* ---------------------- Maximum ------------------------ *
* Atom:       512, |F|max =    0.00139637                 *
* Components:     Fx|max       Fy|max       Fz|max        *
*               0.00139481   0.00006521   0.00000981      *
*                                                         *
* ---------------- Root Mean Square Force --------------- *
*                  |F|rms =    0.00048387                 *
* Components:     Fx|rms       Fy|rms       Fz|rms        *
*               0.00043517   0.00020376   0.00005690      *
***********************************************************
 

                                                      hartree           kcal/mol
IS: NB: Energy of pure electrolyte:         -0.07742347270592         -48.583962

------------------------------ TIMING INFORMATION ------------------------------
AVERAGE TIME:   18088.348s on    128 proc(s)                                    
TOTAL TIME:     18088.353s on    128 proc(s)                                    
================= AVERAGE TIMINGS FROM ALL PROCS (CUMULATIVE) ==================
|| TAG                                    #calls    cpu time   %total  Gflops ||
|| linalg_invert_sym_matrix             :     6        0.00s   0.000%  ------ || (1 procs only)
|| density_fftbox_interp_mult_imbal     : 21880        0.00s   0.000%  ------ ||
|| sparse_set_to_garbage                :   372        0.01s   0.000%  ------ ||
|| onetep.F90 final imbalance           :     1        0.03s   0.000%  ------ ||
|| ngwfs_initialise_from_radial         :     1        0.03s   0.000%  ------ ||
|| onetep.F90 main loop imbalance       :     1        0.04s   0.000%  ------ ||
|| ewald_calculate_forces_realspace     :    19        0.08s   0.000%  ------ ||
|| vdwcorrection_calculate_forces       :    19        0.08s   0.000%  ------ ||
|| vdwcorrection_calculate_energy       :    19        0.10s   0.001%  ------ ||
|| sparse_spam3toblacs_real_fast_imbal  :  1917        0.18s   0.001%  ------ ||
|| basis_extract_function_from_box      :  2688        0.21s   0.001%  ------ ||
|| pseudopotentials_core_density        :    19        0.36s   0.002%  ------ ||
|| pseudopotentials_local_on_grid       :    19        0.36s   0.002%  ------ ||
|| pseudopotentials_nonlocal_mat        :    56        0.50s   0.003%  ------ ||
|| parallel_prepare_fd_halos_alloc      : 90048        0.50s   0.003%  ------ ||
|| sparse_blacstospam3_real_fast_imbal  :  1874        0.57s   0.003%  ------ ||
|| restart_hamiltonian_read             :    18        0.63s   0.004%  ------ ||
|| parallel_prepare_fd_halos_request    : 90048        0.84s   0.005%  ------ ||
|| sparse_spam3toblacs_real_fast_B2     : 245.4k       1.35s   0.007%  ------ ||
|| restart_hamiltonian_write            :    37        1.53s   0.008%  ------ ||
|| smeared_ion_generate_potential_PBC   :    19        1.73s   0.010%  ------ ||
|| energy_and_force_init_cell           :     1        2.29s   0.013%  ------ ||
|| pseudo_make_structure_factor         :    19        2.30s   0.013%  ------ ||
|| eigenstates_calculate                :     1        3.86s   0.021%  ------ ||
|| parallel_prepare_fd_halos_satisfy    : 90048        4.18s   0.023%  ------ ||
|| sparse_init                          :    19        4.80s   0.027%  ------ ||
|| ngwf_gradient_coeffs                 :    37        5.46s   0.030%  ------ ||
|| restart_kernel_write                 :    56        6.94s   0.038%  ------ ||
|| pseudo_local_calculate_forces        :    19        9.07s   0.050%  ------ ||
|| ewald_calculate_energy               :    19        9.83s   0.054%  ------ ||
|| sparse_embed_hotelling_invert_embed  :    56       10.52s   0.058%  ------ ||
|| integrals_grad_spam3                 :    19       11.54s   0.064%  ------ ||
|| nonsc_forces_ngwfs_calc              :    19       11.58s   0.064%  ------ ||
|| density_init_guess_real              :    19       11.85s   0.066%  ------ ||
|| sparse_trace                         :  7486       12.60s   0.070%  ------ ||
|| fourier_filter_cell                  :   516       14.14s   0.078% 203.263 ||
|| pseudo_nlcc_calculate_forces         :    19       14.54s   0.080%  ------ ||
|| projectors_func_ovlp_box_spam3       :    56       14.77s   0.082%  ------ ||
|| projectors_func_grad_ovlp_box_spam3  :    57       15.91s   0.088%  ------ ||
|| pseudo_nl_calculate_forces           :    19       17.62s   0.097%  ------ ||
|| basis_copy_function_to_box           : 26965       25.18s   0.139%  ------ ||
|| projectors_init_fftbox_recip         :   261       25.30s   0.140%  ------ ||
|| properties_calculate                 :     1       25.99s   0.144%  ------ ||
|| restart_ngwfs_tightbox_input         :    18       26.36s   0.146%  ------ ||
|| fourier_apply_box_pair               :  3005       28.91s   0.160%  1.678k ||
|| function_ops_brappd_ketppd_spam3     :    93       31.80s   0.176%  ------ ||
|| ewald_calculate_forces_recipspace    :    19       31.92s   0.176%  ------ ||
|| ewald_calculate_forces               :    19       32.14s   0.178%  ------ ||
|| boltzmann_init_steric_pot            :    19       33.00s   0.182%  ------ ||
|| parallel_prepare_fd_halos_comms_imbal: 90048       35.53s   0.196%  ------ ||
|| parallel_prepare_fd_halos_clear      : 90048       36.44s   0.201%  ------ ||
|| fourier_interpolate_cell             :  1094       50.65s   0.280% 120.356 ||
|| integrals_kinetic_spam3              :    56       53.12s   0.294%  ------ ||
|| sparse_product                       :  5285       54.78s   0.303%  ------ ||
|| parallel_prepare_fd_halos_comms_wait : 90048       61.06s   0.338%  ------ ||
|| sparse_spam3toblacs_real_fast_B1     : 245.4k      63.46s   0.351%  ------ ||
|| projectors_gradient_batch            :   148       67.23s   0.372%  ------ ||
|| sparse_spam3toblacs_real_fast        :  1917       67.85s   0.375%  ------ ||
|| fourier_apply_cell_backward          :  4699       75.42s   0.417% 175.200 ||
|| basis_dot_function_with_box          : 4.725M      87.01s   0.481%  ------ ||
|| sparse_blacstospam3_real_fast        :  1874      114.11s   0.631%  ------ ||
|| cell_grid_extract_box_real           : 10320      120.98s   0.669%  ------ ||
|| parallel_prepare_fd_halos            : 90048      139.05s   0.769%  ------ ||
|| xc_energy_potential                  :   566      167.69s   0.927%  ------ ||
|| cell_grid_deposit_box_real           : 22550      214.67s   1.187%  ------ ||
|| dense_eigensolve                     :   902      236.86s   1.309%  ------ ||
|| restart_ngwfs_tightbox_output        :    30      237.03s   1.310%  ------ ||
|| basis_add_function_to_box            : 13.76M     278.28s   1.538%  ------ ||
|| fourier_apply_cell_forward           :  4623      281.39s   1.556%  46.201 ||
|| edft_diag_ngwf_ham                   :   900      299.09s   1.654%  ------ ||
|| ngwf_gradient_build_batch            :   148      392.06s   2.167%  ------ ||
|| finite_difference_derivative         : 90048      419.24s   2.318%  ------ ||
|| edft_apply_smearing_operator         :   450      460.88s   2.548%  ------ ||
|| integrals_locpot_mat_els_batch       :   884      499.38s   2.761%  ------ ||
|| hamiltonian_energy_components        :    21      656.19s   3.628%  ------ ||
|| ngwf_gradient_batch                  :   148      671.34s   3.711%  ------ ||
|| ngwf_gradient_lnv                    :    37      709.52s   3.923%  ------ ||
|| density_batch_row_sums               :  2188      720.87s   3.985%  ------ ||
|| implicit_solvent_boltzmann_forces    :    19      867.33s   4.795%  ------ ||
|| density_fftbox_deposit_to_cell       : 21880      881.17s   4.871%  ------ ||
|| potential_apply_to_ngwf_batch        :   884     1489.95s   8.237%  ------ ||
|| dl_mg_solver_calls                   :   547     1582.72s   8.750%  ------ ||
|| multigrid_calculate_hartree          :   547     1637.79s   9.054%  ------ ||
|| smeared_ion_force_correction         :    38     1714.17s   9.477%  ------ ||
|| implicit_solvent_soft_sphere_forces  :    19     1805.10s   9.979%  ------ ||
|| integrals_locpot_dbl_grid            :   442     1991.41s  11.009%  ------ ||
|| fourier_apply_box                    : 60107     2112.84s  11.681%  2.166k ||
|| density_fftbox_interpolate_multiply  : 21880     2413.03s  13.340%  ------ ||
|| density_batch_interp_deposit         :  2188     4162.17s  23.010%  ------ ||
|| forces_calculate                     :    19     4648.98s  25.702%  ------ ||
|| density_on_dbl_grid                  :  1094     5136.00s  28.394%  ------ ||
|| hamiltonian_lhxc_calculate           :   507     6750.18s  37.318%  ------ ||
|| edft_calculate                       :    37     8430.46s  46.607%  ------ ||
|| ngwf_cg_optimise                     :    19    10410.66s  57.555%  ------ ||
|| energy_and_forces                    :    19    17992.98s  99.473%  ------ ||
|| total_time                           :     1    18088.35s 100.000%  ------ ||
================================================================================
Overhead of generating timer report: 
- 0 ms averaging over threads,
- 12 ms ensuring consistency across MPI ranks,
- 70 ms printing in order.

Job completed: 22-10-2023 16:11 (+0100)

