 +---------------------------------------------------------------+
 |                                                               |
 |        ####### #     # ####### ####### ####### ######         |
 |        #     # ##    # #          #    #       #     #        |
 |        #     # # #   # #          #    #       #     #        |
 |        #     # #  #  # #####      #    #####   ######         |
 |        #     # #   # # #          #    #       #              |
 |        #     # #    ## #          #    #       #              |
 |        ####### #     # #######    #    ####### #              |
 |                                                               |
 |        Linear-Scaling Ab Initio Total Energy Program          |
 |                                                               |
 |          Release for academic collaborators of ODG            |
 |                                             Version 6.1.59    |
 | Remote: https://github.com/onetep-devel/onetep.git            |
 | Local branch: master                                          |
 | Commit ID: 3df6b8ca88fa1735659d3248d54c94b50edec21b           |
 | Date: Thu Oct 5 13:49:52 2023 +0200                           |
 | Working tree clean                                            |
 |                                                               |
 +---------------------------------------------------------------+
 |                                                               |
 |  Authors:                                                     |
 |  Jacek Dziedzic, Peter D. Haynes, Nicholas D. M. Hine,        |
 |  Arash A. Mostofi, Mike C. Payne and Chris-Kriton Skylaris    |
 |                                                               |
 |  Contributors:                                                |
 |  J. Aarons, L. Andrinopoulos, P. W. Avraam, R. A. Bell,       |
 |  A. Bhandari, G. A. Bramley, R. J. Charlton, S. J. Clark,     |
 |  R. J. Clements, G. C. Constantinescu, F. Corsetti,           |
 |  N. Corsini, O. Dieguez, S. M. M. Dubois, K. K. B. Duff,      |
 |  J. M. Escartin, M. Escobar Azor, A. Greco,                   |
 |  H. Helal, Q. O. Hill, L. P. Lee, J.-H. Li,                   |
 |  E. B. Linscott, G. Moynihan, D. D. O`Regan,                  |
 |  O. K. Okan, M. J. S. Phipps, C. J. Pickard,                  |
 |  J. C. A. Prentice, M. I. J. Probert, L. E. Ratcliff,         |
 |  M. Robinson, A. Ruiz Serrano, M. dos Santos Dias,            |
 |  J. S. Spencer, E. W. Tait, G. Teobaldi, D. Turban,           |
 |  V. Vitale, K. A. Wilkinson, C. Weber, J. C. Womack,          |
 |  N. Yeung and T. J. Zuehlsdorff                               |
 |                                                               |
 |                                   Copyright (c) 2004-2023     |
 |                                                               |
 |  Please cite:                                                 |
 |  "The ONETEP linear-scaling density functional theory program"|
 |   J. Chem. Phys. 152(17) 174111 (2020)                        |
 |                                                               |
 |          in all publications arising from your use of ONETEP. |
 |                                                               |
 +---------------------------------------------------------------+
 |                                                               |
 |   ONETEP is based on developments described in the following  |
 |   publications:                                               |
 |                                                               |
 |  "Nonorthogonal generalized Wannier function pseudopotential  |
 |   plane-wave method".                                         |
 |   C.-K. Skylaris, A. A. Mostofi, P. D. Haynes, O. Dieguez,    |
 |   M. C. Payne.                                                |
 |   Phys. Rev. B 66 035119 (2002).                              |
 |                                                               |
 |  "Preconditioned iterative minimization for linear-scaling    |
 |   electronic structure calculations".                         |
 |   A. A. Mostofi, P. D. Haynes, C.-K. Skylaris, M. C. Payne.   |
 |   J. Chem. Phys. 119(17), pp.8842-8848 (2003).                |
 |                                                               |
 |  "Total-energy calculations on a real space grid with         |
 |   localized functions and a plane-wave basis".                |
 |   A. A. Mostofi, C.-K. Skylaris, P. D. Haynes, M. C. Payne.   |
 |   Comput. Phys. Commun. 147, pp.788-802 (2002).               |
 |                                                               |
 |  "Accurate kinetic energy evaluation in electronic structure  |
 |   calculations with localized functions on real space grids"  |
 |   C.-K. Skylaris, A. A. Mostofi, P. D. Haynes, C. J. Pickard, |
 |   M. C. Payne.                                                |
 |   Comput. Phys. Commun. 140, pp.315-322 (2001).               |
 |                                                               |
 |  "Accurate ionic forces and geometry optimization in linear-  |
 |   scaling density-functional theory with local orbitals"      |
 |   N. D. M. Hine, M. Robinson, P. D. Haynes, C.-K. Skylaris,   |
 |   M. C. Payne, and A. A. Mostofi.                             |
 |   Phys. Rev. B 83 195102 (2011).                              |
 |                                                               |
 +---------------------------------------------------------------+

Job started: 22-10-2023 10:14 (+0100)
 
Reading parameters from file "graphite.dat" ...... done

If your calculation crashes here, before "Checking processes and threads..."
is displayed, then your stack size is insufficient.
If so, use "ulimit -s unlimited" at runtime.
You can disable this check with "check_stack_size F".

Checking processes and threads...
   Determining the default number of threads...
      No default threads set at compilation time: defaulting to 1.
      OpenMP library call suggests 8 threads.
      Hybrid MPI-OpenMP compilation detected.
      Number of MPI processes > 1.
      OMP_NUM_THREADS environment variable present and
      its value matches the one obtained from the OpenMP library call.
      Using this value as default.
      Default threads: 8
      Default applies to threads_max and threads_num_fftboxes.
      Settings in the input file override this default.
   ... done

   Running with 128 MPI processes.
   There are 16 MPI processes running on the same node as the root process.
   Each MPI process is using: 
               1 threads for simulation cell FFTs.
               1 threads for parallel FFT box operations.
               8 threads for loops over batched FFT box operations.
               8 threads in other parallel regions.
   MPI Interface: S1 (use mpi_f08) (-DMPI -DUSE_MPI_F08).
   MPI_ASYNC_PROTECTS_NONBLOCKING: Yes. MPI_SUBARRAYS_SUPPORTED: Yes.
   GPU Interface: None.
... done

Basic input checks...
Resetting ngwf_cg_rotate to TRUE for EDFT calculations
... done

Reading geometry and species blocks from file "graphite.dat" ...
  Reading POSITIONS geometry from str.xyz

  <species_atomic_set> block not found: NGWF initialisation set to SOLVE
IS: Dielectric excluded regions:
    - NONE.
IS: Assigning soft sphere radii for soft sphere solvation...
IS: No soft sphere radii specified. Default Alvarez radii used for all atoms.

----------- SOFT SPHERE RADII -----------
Li  5.333
C   4.442
-----------------------------------------

    
  Number of PPD points along a3 set to 1.  This is 
  the default value, it may have been provided also in the input file.
... done


--------------------------------------------------------------------------------
---------------------------------- INPUT FILE ----------------------------------
--------------------------------------------------------------------------------

task geometryoptimization                                                       
geom_method LBFGS                                                               
geom_continuation T                                                             
write_xyz T                                                                     
edft_grand_canonical T                                                          
edft_reference_potential  -4.42 eV                                              
edft_electrode_potential 0.0 V                                                  
edft_nelec_thres 0.000001                                                       
is_dielectric_function soft_sphere                                              
is_implicit_solvent T                                                           
is_smeared_ion_rep T                                                            
is_include_apolar T                                                             
is_solvation_properties F                                                       
is_pbe                    full                                                  
is_pbe_temperature        298.15                                                
is_pbe_bc_debye_screening T                                                     
is_pbe_neutralisation_scheme counterions_auto                                   
is_pbe_energy_tolerance 1E+50                                                   
is_bc_coarseness 5                                                              
is_bc_threshold 1E-9                                                            
is_bulk_permittivity 90.7                                                       
is_solvent_surf_tension 0.0506 N/m                                              
%block sol_ions                                                                 
Li  +1 1.0                                                                      
PF6 -1 1.0                                                                      
%endblock sol_ions                                                              
is_steric_pot_type M                                                            
is_hc_steric_dens_isovalue  0.001                                               
is_hc_steric_smearing         0.4 bohr                                          
is_steric_write T                                                               
%block species_solvent_radius                                                   
Li 3.0                                                                          
C 3.0                                                                           
%endblock species_solvent_radius                                                
multigrid_bc:   P P P                                                           
ion_ion_bc:     P P P                                                           
pspot_bc:       P P P                                                           
smeared_ion_bc: P P P                                                           
mg_max_iters_vcycle 500                                                         
mg_vcyc_smoother_iter_pre 4                                                     
mg_vcyc_smoother_iter_post 4                                                    
mg_max_res_ratio 1000.0                                                         
mg_max_iters_newton 300                                                         
edft                    : T                                                     
edft_smearing_width     : 0.1 eV                                                
spin                    : 0.0                                                   
edft_spin_fix           : 2                                                     
spin_polarized          : T                                                     
cutoff_energy :  1000 eV                                                        
kernel_cutoff : 1000 bohr                                                       
xc_functional PBE                                                               
dispersion 4                                                                    
output_detail VERBOSE                                                           
do_properties T                                                                 
cube_format F                                                                   
dx_format F                                                                     
write_denskern T                                                                
write_tightbox_ngwfs T                                                          
write_hamiltonian T                                                             
%block species                                                                  
Li Li 3  5  8.0                                                                 
C  C  6  4  8.0                                                                 
%endblock species                                                               
%block species_pot                                                              
Li '/work/e89/e89/arihant/pseudo/Li.usp'                                        
C '/work/e89/e89/arihant/pseudo/C.usp'                                          
%endblock species_pot                                                           
%BLOCK LATTICE_CART                                                             
ang                                                                             
34.16920551     0.00000000     0.00000000                                       
0.00000000    19.72760000     0.00000000                                        
0.00000000     0.00000000   100.02798000                                        
%ENDBLOCK LATTICE_CART                                                          
positions_xyz_file str.xyz                                                      
     Hash =  -000005862709476141294818

--------------------------------------------------------------------------------
-------------------------------- END INPUT FILE --------------------------------
--------------------------------------------------------------------------------


 
 ESDF WARNING(1): "ispbeenergytolerance" (esdf_physical) has no units. Assume "hartree".
<<<<<<<<<<<<<<<<<<<<<<<<<<<<<<<<< Full system >>>>>>>>>>>>>>>>>>>>>>>>>>>>>>>>>>
<<<<<<<<<<<<<<<<<<<<<<<<< Pseudopotential information >>>>>>>>>>>>>>>>>>>>>>>>>>
File: /work/e89/e89/arihant/pseudo/Li.usp [ 2001 points up to Gmax=  52.9 (1/bohr)]
  Atomic number:  3;  ionic charge:  3.000000
    Shell 1: l = 0; rc = 1.19 bohr
    Shell 2: l = 0; rc = 1.25 bohr
File: /work/e89/e89/arihant/pseudo/C.usp [ 2001 points up to Gmax=  52.9 (1/bohr)]
  Atomic number:  6;  ionic charge:  4.000000
    Shell 1: l = 0; rc = 1.19 bohr
  Core charge supplied for Nonlinear Core Corrections
<<<<<<<<<<<<<<<<<<<<<<<<<<<<<<<<<<<<<<<<>>>>>>>>>>>>>>>>>>>>>>>>>>>>>>>>>>>>>>>>

-------------------------- Atom counting information ---------------------------
Symbol    Natoms    Nngwfs    Nprojs
  Li         5        25        10
  C        512      2048       512
.......   ......    ......    ......
Totals:    517      2073       522
--------------------------------------------------------------------------------

=============================== PSINC grid sizes ===============================
                      Simulation cell:  143 x  91 x 416
                              FFT-box:  117 x  91 x 117
                                  PPD:   11 x   7 x   1
Grid space d1=  0.451541543008a0 (KE cutoff=  37.25706Eh =1013.81618eV)
Grid space d2=  0.409667706512a0 (KE cutoff=  45.26271Eh =1231.66098eV)
Grid space d3=  0.454388192297a0 (KE cutoff=  36.79171Eh =1001.15326eV)
================================================================================
  
WARNING in cell_grid_distribute:
Average of less than one 23-slab per proc, so workload cannot be
equally balanced between procs.

********************* Fourier parallelisation information **********************
       Coarse grid (whole simulation cell) dimensions:    143    91   416
          Real-space ('12') slabs/proc (min max mean):      3     4     3
         Recip-space ('23') slabs/proc (min max mean):      0     1     0
********************************************************************************

********************* Fourier parallelisation information **********************
       Double grid (whole simulation cell) dimensions:    286   182   832
          Real-space ('12') slabs/proc (min max mean):      6     7     6
         Recip-space ('23') slabs/proc (min max mean):      1     2     1
********************************************************************************

********************* Fourier parallelisation information **********************
         Fine grid (whole simulation cell) dimensions:    288   184   832
          Real-space ('12') slabs/proc (min max mean):      6     7     6
         Recip-space ('23') slabs/proc (min max mean):      1     2     1
         Grid scale modified to satisfy multigrid solver grid constraints
         Grid scale values after modifification:         2.01  2.02  2.00
********************************************************************************
ONETEP fine grid is 288 x 184 x 832 gridpoints, 64.5704 x 37.2798 x 189.0255 bohr.
FD multigrid is     288 x 184 x 832 gridpoints, 64.5704 x 37.2798 x 189.0255 bohr.


Atom SCF Calculation for Li : Z (AE atom) =   3 : Z (PS atom) =   3
Config String:
Orbitals (num,occ):  3     2.00 1.00 0.00
Orbitals   (num,l):  3        0    0    1
Real-space Grid (nr,dr,rmax): 1343    0.0059612519    8.0000000000
Spherical Bessel Basis (nsws,lmax,cutoff):   37    1  220.4959463253
Confining potential (l,width,scale):  0    3.0000000000  100.0000000000
Confining potential (l,width,scale):  1    3.0000000000  100.0000000000
  1         -3.7050169094   -5.2301177776    2.5388568852   -0.9989538802
  2         -6.0510920273   -4.2679357854    3.2724001845   -1.3422946715
  3         -6.7975021434   -3.8722499620    3.6648237887   -1.5325279919
  4         -7.0147472228   -3.7673066376    3.7864613280   -1.5966989055
  5         -7.0774132854   -3.7446783348    3.8157063634   -1.6161454686
  6         -7.0951992563   -3.7420177453    3.8204515040   -1.6217593843
  7         -7.1001226024   -3.7430426481    3.8200527077   -1.6233132433
  8         -7.1014239576   -3.7441529610    3.8191274553   -1.6237164860
  9         -7.1017352306   -3.7448434699    3.8184905098   -1.6238077213
 10         -7.1017916056   -3.7452114113    3.8181373932   -1.6238209669
 11         -7.1017908912   -3.7453946820    3.8179578223   -1.6238181917
 12         -7.1017822190   -3.7454828903    3.8178702968   -1.6238141227
 13         -7.1017768840   -3.7455162316    3.8178369316   -1.6238119017
 14         -7.1017732849   -3.7455353767    3.8178176959   -1.6238104459
 15         -7.1017709700   -3.7455463461    3.8178066371   -1.6238095253
 16         -7.1017695244   -3.7455526225    3.8178002910   -1.6238089565
 17         -7.1017686390   -3.7455562110    3.8177966534   -1.6238086105
 18         -7.1017681040   -3.7455582619    3.8177945697   -1.6238084022
 19         -7.1017677838   -3.7455594341    3.8177933764   -1.6238082778
 20         -7.1017675934   -3.7455601042    3.8177926929   -1.6238082039
 21         -7.1017674808   -3.7455604874    3.8177923014   -1.6238081602
 22         -7.1017674145   -3.7455607066    3.8177920771   -1.6238081344
Atom SCF converged after  22 iterations to a total energy of     -7.10176741

Atom SCF Calculation for C  : Z (AE atom) =   6 : Z (PS atom) =   4
Config String:
Orbitals (num,occ):  2     2.00 2.00
Orbitals   (num,l):  2        0    1
Real-space Grid (nr,dr,rmax): 1343    0.0059612519    8.0000000000
Spherical Bessel Basis (nsws,lmax,cutoff):   37    1  220.4959463253
Confining potential (l,width,scale):  0    3.0000000000  100.0000000000
Confining potential (l,width,scale):  1    3.0000000000  100.0000000000
  1         -5.8177092822   -1.2555419264    4.5135233515   -1.7471920893
  2         -5.6032261188   -1.3440047989    4.4246587726   -1.7090653419
  3         -5.5936068668   -1.3561735374    4.4140765627   -1.7034094417
  4         -5.5958505747   -1.3587284552    4.4121342699   -1.7022848669
  5         -5.5969687665   -1.3601698222    4.4109982405   -1.7017057890
  6         -5.5975400979   -1.3609792837    4.4103423276   -1.7013975981
  7         -5.5978435204   -1.3614297943    4.4099696476   -1.7012314972
  8         -5.5980096069   -1.3616786122    4.4097605138   -1.7011416075
  9         -5.5981021113   -1.3618152853    4.4096441572   -1.7010929151
 10         -5.5981539939   -1.3618900852    4.4095797860   -1.7010665406
 11         -5.5981831160   -1.3619309228    4.4095443105   -1.7010522599
 12         -5.5981994243   -1.3619531807    4.4095248124   -1.7010445305
 13         -5.5982085235   -1.3619652972    4.4095141175   -1.7010403487
 14         -5.5982135796   -1.3619718867    4.4095082606   -1.7010380870
 15         -5.5982163780   -1.3619754676    4.4095050573   -1.7010368642
 16         -5.5982179208   -1.3619774123    4.4095033073   -1.7010362032
 17         -5.5982187685   -1.3619784678    4.4095023522   -1.7010358460
 18         -5.5982192328   -1.3619790404    4.4095018314   -1.7010356530
 19         -5.5982194864   -1.3619793509    4.4095015476   -1.7010355488
 20         -5.5982196245   -1.3619795192    4.4095013931   -1.7010354925
 21         -5.5982196995   -1.3619796104    4.4095013090   -1.7010354621
Atom SCF converged after  21 iterations to a total energy of     -5.59821970

BC: Task: GEOMETRYOPTIMIZATION
BC: +++++++++++++++ Summary of boundary conditions ++++++++++++++
BC: |       Component       |     Keyword     |   Periodicity   |
BC: |                       |                 |     X  Y  Z [1] |
BC: |-----------------------------------------------------------|
BC: | Ion-ion               | ion_ion_bc [2]  |     P  P  P     |
BC: | Local pseudopotential | pspot_bc [3]    |     P  P  P     |
BC: | Multigrid solver      | multigrid_bc    |     P  P  P     |
BC: | Smeared ions          | smeared_ion_bc  |     P  P  P     |
BC: | Van der Waals         | vdw_bc          |     P  P  P     |
BC: +++++++++++++++++++++++++++++++++++++++++++++++++++++++++++++
BC: P: Periodic, O: Open.
BC: [1] Not strictly along X, Y, Z but rather along lattice vectors A1, A2, A3.
BC: [2] Also affected by: pbc_correction_cutoff, cutoff_coulomb_type,
BC:     is_smeared_ion_rep, is_implicit_solvent, openbc_ion_ion.
BC: [3] Also affected by: is_smeared_ion_rep, is_implicit_solvent, openbc_pspot.

================================================================================
<<<<<<<<<<<<<<<< Resuming previous ONETEP Geometry Optimisation >>>>>>>>>>>>>>>>
================================================================================

 Geometry Optimisation: output file is "graphite.geom"
 
 Reading continuation file "graphite.continuation" ...done
 Geometry Optimisation: read_tightbox_ngwfs parameter over-ridden to TRUE
 Geometry Optimisation: read_hamiltonian parameter over-ridden to T
 
                           -------------------------------
                                     Cell Contents
                           -------------------------------
 
            xxxxxxxxxxxxxxxxxxxxxxxxxxxxxxxxxxxxxxxxxxxxxxxxxxxxxxxxxxxx
            x  Element    Atom      Absolute co-ordinates of atoms     x
            x            Number        x           y           z       x
            x----------------------------------------------------------x
            x    Li        1       20.480125    6.721126   16.069213   x
            x    Li        2       15.777279    9.440180   16.044535   x
            x    Li        3       20.374286   11.948317   16.142235   x
            x    Li        4       15.873853    4.151299   16.204160   x
            x    Li        5       18.151355    8.144926   21.095682   x
            x    C         6       16.199974    9.200355    6.345275   x
            x    C         7       48.485942   27.839744    6.311075   x
            x    C         8       17.547665    6.869614    6.362123   x
            x    C         9       13.511111    9.200147    6.337422   x
            x    C        10       17.547599   11.531001    6.352497   x
            x    C        11       12.163878   11.530641    6.333115   x
            x    C        12       13.511481   13.860992    6.339080   x
            x    C        13       16.200268   13.861354    6.348787   x
            x    C        14       49.832981   25.509678    6.323670   x
            x    C        15       45.797073   27.839763    6.313243   x
            x    C        16       49.833081   30.169828    6.317306   x
            x    C        17       44.449979   30.169964    6.316710   x
            x    C        18       45.797110   32.500108    6.323385   x
            x    C        19       48.485983   32.499989    6.323306   x
            x    C        20       16.200209    4.538944    6.374405   x
            x    C        21       12.163673    6.869453    6.351422   x
            x    C        22       20.236837    6.869659    6.378978   x
            x    C        23       20.236652   11.531057    6.375053   x
            x    C        24        9.475271   11.530137    6.342492   x
            x    C        25       48.485831   23.179668    6.338764   x
            x    C        26       44.449945   25.509726    6.327851   x
            x    C        27       52.521740   25.509725    6.336929   x
            x    C        28       52.521864   30.169770    6.333441   x
            x    C        29       41.761126   30.170009    6.334028   x
            x    C        30       13.511242    4.539030    6.371192   x
            x    C        31        9.475059    6.869434    6.361309   x
            x    C        32       21.584175    9.200351    6.386035   x
            x    C        33        8.128183    9.199768    6.356125   x
            x    C        34        8.128613   13.860432    6.355837   x
            x    C        35       17.548008   16.191521    6.369863   x
            x    C        36       12.164535   16.191021    6.353073   x
            x    C        37       45.797043   23.179675    6.343553   x
            x    C        38       41.761178   25.509791    6.347403   x
            x    C        39       53.868851   27.839705    6.343465   x
            x    C        40       40.414083   27.839880    6.347506   x
            x    C        41       40.414023   32.500156    6.352488   x
            x    C        42       49.833055   34.829969    6.349622   x
            x    C        43       44.449915   34.830201    6.345704   x
            x    C        44       12.164195    2.208747    6.398827   x
            x    C        45       17.547918    2.208603    6.401071   x
            x    C        46       21.584199    4.539135    6.398873   x
            x    C        47       24.272928    9.200340    6.410457   x
            x    C        48       21.583974   13.861494    6.392190   x
            x    C        49        9.476069   16.190422    6.362402   x
            x    C        50       20.236509   16.191503    6.389884   x
            x    C        51       13.512271   18.520794    6.377029   x
            x    C        52       16.200655   18.521201    6.382765   x
            x    C        53       44.449886   20.849775    6.378502   x
            x    C        54       49.832782   20.849706    6.369005   x
            x    C        55       53.868738   23.179726    6.363413   x
            x    C        56       56.557545   27.839725    6.374365   x
            x    C        57       53.868943   32.499698    6.359587   x
            x    C        58       41.761110   34.830227    6.360079   x
            x    C        59       52.521857   34.829776    6.366665   x
            x    C        60       45.796989   37.160132    6.371858   x
            x    C        61       48.485825   37.159997    6.373111   x
            x    C        62       20.236689    2.208683    6.409341   x
            x    C        63        9.475596    2.209171    6.409540   x
            x    C        64        8.128367    4.539161    6.391169   x
            x    C        65       24.272906    4.539528    6.415063   x
            x    C        66       25.619977    6.869880    6.421468   x
            x    C        67        5.439906    9.199642    6.383519   x
            x    C        68        4.093217   11.529924    6.393372   x
            x    C        69       24.272623   13.861045    6.418866   x
            x    C        70        5.440219   13.859984    6.381160   x
            x    C        71        8.129325   18.520324    6.393181   x
            x    C        72       52.521579   20.849779    6.377805   x
            x    C        73       41.761241   20.849870    6.397682   x
            x    C        74       40.414195   23.179847    6.380658   x
            x    C        75       56.557415   23.179764    6.387147   x
            x    C        76       57.904463   25.509715    6.394048   x
            x    C        77       37.725440   27.840018    6.379480   x
            x    C        78       36.378352   30.170092    6.391802   x
            x    C        79       56.557530   32.499619    6.391449   x
            x    C        80       37.725343   32.500135    6.380445   x
            x    C        81       40.414060   37.160212    6.393962   x
            x    C        82       25.619550    2.209239    6.431667   x
            x    C        83       41.761058    2.210348    6.418040   x
            x    C        84       49.832907    2.210077    6.411696   x
            x    C        85       44.449799    2.210307    6.407867   x
            x    C        86       52.521699    2.209919    6.424755   x
            x    C        87        5.440019    4.539383    6.415286   x
            x    C        88        4.093189    6.869465    6.410976   x
            x    C        89       25.619795   11.530898    6.427434   x
            x    C        90        4.093570   16.190114    6.404241   x
            x    C        91        5.440850   18.519939    6.411465   x
            x    C        92       21.583741   18.521307    6.418572   x
            x    C        93       48.485638   18.519861    6.401408   x
            x    C        94       45.796921   18.519922    6.407919   x
            x    C        95       53.868562   18.519876    6.414595   x
            x    C        96       57.904329   20.849774    6.415353   x
            x    C        97        9.476846   20.849999    6.416324   x
            x    C        98       17.548208   20.850795    6.415692   x
            x    C        99       12.165261   20.850355    6.407772   x
            x    C       100       20.236333   20.850863    6.429717   x
            x    C       101       37.725614   23.180034    6.410018   x
            x    C       102       36.378519   25.510031    6.407144   x
            x    C       103       57.904473   30.169644    6.398980   x
            x    C       104       36.378449   34.830162    6.404866   x
            x    C       105       37.725387   37.160092    6.412872   x
            x    C       106       53.868853   37.159626    6.405943   x
            x    C       107       16.200598   37.158345    6.423923   x
            x    C       108       13.512025   37.158564    6.425092   x
            x    C       109       21.583951   37.158455    6.434173   x
            x    C       110       28.307928    2.209833    6.441883   x
            x    C       111       29.654868    4.539863    6.449220   x
            x    C       112       45.796863    4.540154    6.440495   x
            x    C       113       48.485642    4.540092    6.440454   x
            x    C       114       28.308288    6.870103    6.443604   x
            x    C       115       28.308175   11.530528    6.454734   x
            x    C       116        1.404915   11.529772    6.426584   x
            x    C       117       25.619394   16.191135    6.441524   x
            x    C       118       52.521502   16.190002    6.439794   x
            x    C       119       49.832764   16.190034    6.436768   x
            x    C       120        1.405119   16.189827    6.428114   x
            x    C       121       56.557283   18.519877    6.426634   x
            x    C       122       24.272053   18.520886    6.440813   x
            x    C       123       40.414234   18.520087    6.439809   x
            x    C       124       60.593031   20.849868    6.433004   x
            x    C       125       61.940003   23.179752    6.440468   x
            x    C       126       13.512804   23.179998    6.438593   x
            x    C       127       16.200935   23.180329    6.439496   x
            x    C       128       60.593013   25.509759    6.427166   x
            x    C       129       60.592961   30.169468    6.436947   x
            x    C       130       33.689781   30.170096    6.425661   x
            x    C       131       57.904417   34.829443    6.425881   x
            x    C       132       20.236485   34.828793    6.452548   x
            x    C       133       17.548218   34.828635    6.450425   x
            x    C       134       33.689878   34.829953    6.428653   x
            x    C       135       24.272311   37.159079    6.440240   x
            x    C       136       56.557498   37.159408    6.430474   x
            x    C       137        8.128986   37.158901    6.445946   x
            x    C       138       33.689930    2.210104    6.449912   x
            x    C       139       57.904485    2.209544    6.462434   x
            x    C       140       36.378451    2.210269    6.442547   x
            x    C       141        1.404969    2.209432    6.467315   x
            x    C       142        4.093350    2.209332    6.448549   x
            x    C       143       37.725334    4.540191    6.463516   x
            x    C       144       53.868768    4.539811    6.461061   x
            x    C       145       32.343208    4.540207    6.460988   x
            x    C       146       40.413930    4.540261    6.454753   x
            x    C       147       56.557528    4.539608    6.472425   x
            x    C       148        0.058166    4.539448    6.463912   x
            x    C       149       49.832805    6.869948    6.469928   x
            x    C       150       44.449657    6.870101    6.470376   x
            x    C       151       52.521535    6.869847    6.475620   x
            x    C       152        1.404942    6.869580    6.442182   x
            x    C       153       29.654935    9.200342    6.461761   x
            x    C       154        0.058168    9.199707    6.447243   x
            x    C       155       48.485569   13.860132    6.464807   x
            x    C       156       29.654802   13.860701    6.472931   x
            x    C       157        0.058154   13.859891    6.437419   x
            x    C       158       45.796856   13.860172    6.470822   x
            x    C       159       53.868644   13.860027    6.469663   x
            x    C       160       61.940063   13.859821    6.459068   x
            x    C       161       44.449825   16.190105    6.447471   x
            x    C       162       60.593061   16.189911    6.453272   x
            x    C       163       28.307785   16.190557    6.465283   x
            x    C       164       41.761226   16.190174    6.462219   x
            x    C       165       57.904387   16.189927    6.453989   x
            x    C       166       61.940005   18.519809    6.444573   x
            x    C       167        0.058220   18.519920    6.440550   x
            x    C       168       37.725641   18.520216    6.459989   x
            x    C       169        1.405262   20.849722    6.448256   x
            x    C       170       25.618871   20.850667    6.465633   x
            x    C       171        4.093961   20.849894    6.441087   x
            x    C       172       33.690089   20.850272    6.466008   x
            x    C       173       36.378690   20.850082    6.445379   x
            x    C       174        5.441294   23.179602    6.461629   x
            x    C       175       21.583479   23.180439    6.460950   x
            x    C       176        0.058252   23.179749    6.457163   x
            x    C       177        8.129863   23.179751    6.452482   x
            x    C       178       24.271593   23.180351    6.472276   x
            x    C       179       32.342920   23.180162    6.462193   x
            x    C       180       17.548269   25.509960    6.467311   x
            x    C       181       12.165596   25.509695    6.467573   x
            x    C       182       20.236238   25.510042    6.473281   x
            x    C       183       33.689924   25.510189    6.439958   x
            x    C       184       61.939922   27.839547    6.448752   x
            x    C       185       32.342789   27.840151    6.445508   x
            x    C       186       16.200899   32.498965    6.470690   x
            x    C       187       61.939875   32.499377    6.462408   x
            x    C       188       32.342833   32.500102    6.437118   x
            x    C       189       13.512701   32.499207    6.474971   x
            x    C       190       21.583658   32.499201    6.474308   x
            x    C       191       29.654329   32.499859    6.458810   x
            x    C       192       12.165024   34.828842    6.455822   x
            x    C       193       28.307505   34.829762    6.455534   x
            x    C       194       60.592957   34.829303    6.455392   x
            x    C       195        9.476521   34.829190    6.466498   x
            x    C       196       25.619098   34.829261    6.459321   x
            x    C       197       29.654572   37.159523    6.447833   x
            x    C       198       32.343071   37.159965    6.441871   x
            x    C       199        5.440485   37.159251    6.462692   x
            x    C       200       60.593066    2.209461    6.473810   x
            x    C       201       61.940047    4.539529    6.478409   x
            x    C       202       33.689951    6.870155    6.479903   x
            x    C       203       41.760972    6.870150    6.478047   x
            x    C       204       60.593174    6.869593    6.482469   x
            x    C       205       36.378358    6.870191    6.485749   x
            x    C       206       57.904551    6.869666    6.488351   x
            x    C       207       37.725311    9.200246    6.501621   x
            x    C       208       45.796873    9.200098    6.485175   x
            x    C       209       56.557485    9.199810    6.490870   x
            x    C       210       32.343172    9.200275    6.483080   x
            x    C       211       40.413844    9.200189    6.497630   x
            x    C       212       48.485587    9.200025    6.481939   x
            x    C       213       53.868769    9.199852    6.489719   x
            x    C       214       61.940160    9.199683    6.473150   x
            x    C       215       33.690015   11.530382    6.498012   x
            x    C       216       41.761012   11.530276    6.497989   x
            x    C       217       60.593169   11.529842    6.474535   x
            x    C       218       36.378475   11.530336    6.505462   x
            x    C       219       52.521528   11.529992    6.483112   x
            x    C       220       44.449648   11.530199    6.488656   x
            x    C       221       49.832749   11.530091    6.482014   x
            x    C       222       57.904500   11.529898    6.485526   x
            x    C       223       37.725512   13.860359    6.500067   x
            x    C       224       56.557401   13.859999    6.471458   x
            x    C       225       32.343258   13.860332    6.491181   x
            x    C       226       40.414085   13.860243    6.491156   x
            x    C       227       33.690095   16.190415    6.491084   x
            x    C       228       36.378629   16.190271    6.487465   x
            x    C       229       29.654596   18.520575    6.477440   x
            x    C       230       32.343159   18.520249    6.480999   x
            x    C       231       28.307345   20.850276    6.475453   x
            x    C       232       29.654292   23.180311    6.477365   x
            x    C       233        1.405321   25.509533    6.476591   x
            x    C       234        9.477245   25.509584    6.475359   x
            x    C       235       28.307087   25.510176    6.480537   x
            x    C       236        4.094088   25.509554    6.483810   x
            x    C       237       25.618639   25.510198    6.486255   x
            x    C       238        5.441275   27.839453    6.499650   x
            x    C       239       13.512946   27.839559    6.482884   x
            x    C       240       24.271593   27.839982    6.488735   x
            x    C       241        0.058178   27.839481    6.476980   x
            x    C       242        8.129978   27.839486    6.495625   x
            x    C       243       16.201043   27.839565    6.479890   x
            x    C       244       21.583448   27.839814    6.487507   x
            x    C       245       29.654187   27.840143    6.471239   x
            x    C       246        1.405171   30.169458    6.494057   x
            x    C       247        9.477158   30.169492    6.496893   x
            x    C       248       28.307141   30.170116    6.473245   x
            x    C       249        4.093944   30.169382    6.503553   x
            x    C       250       20.236304   30.169502    6.483701   x
            x    C       251       12.165517   30.169380    6.488469   x
            x    C       252       17.548297   30.169286    6.482764   x
            x    C       253       25.618765   30.169823    6.484616   x
            x    C       254        5.441012   32.499418    6.499369   x
            x    C       255       24.271833   32.499549    6.474175   x
            x    C       256        0.058066   32.499349    6.486253   x
            x    C       257        8.129623   32.499275    6.491670   x
            x    C       258        1.405027   34.829366    6.489434   x
            x    C       259        4.093686   34.829185    6.487705   x
            x    C       260       61.939949   37.159288    6.473875   x
            x    C       261        0.058066   37.159135    6.480005   x
            x    C       262       17.525473    6.909735   12.344902   x
            x    C       263       49.816857   25.552454   12.478921   x
            x    C       264       18.876729    9.245413   12.351394   x
            x    C       265       13.461325    9.252245   12.352994   x
            x    C       266       14.816984   11.595196   12.360086   x
            x    C       267       51.162792   27.881637   12.477919   x
            x    C       268       45.783156   27.881821   12.466805   x
            x    C       269       47.129209   30.211086   12.466126   x
            x    C       270       14.821547    6.909197   12.390475   x
            x    C       271       17.520120   11.591646   12.386313   x
            x    C       272       47.129367   25.552625   12.475461   x
            x    C       273       49.816848   30.210937   12.471086   x
            x    C       274       10.775596    9.246634   12.403936   x
            x    C       275       13.474345   13.926580   12.405588   x
            x    C       276       43.095252   27.881781   12.474347   x
            x    C       277       45.783437   32.541151   12.472175   x
            x    C       278       18.880147    4.566143   12.429548   x
            x    C       279       21.581886    9.246581   12.426457   x
            x    C       280        9.439567   11.581277   12.427589   x
            x    C       281       51.162797   23.223232   12.496775   x
            x    C       282       53.850153   27.881606   12.493395   x
            x    C       283       41.748593   30.211682   12.479155   x
            x    C       284       13.466686    4.568372   12.421785   x
            x    C       285       10.788535   13.913149   12.431261   x
            x    C       286       18.874316   13.931105   12.416946   x
            x    C       287       45.782955   23.223128   12.490380   x
            x    C       288       43.095251   32.541701   12.480221   x
            x    C       289       51.163025   32.540782   12.483885   x
            x    C       290       21.586202    4.561725   12.429716   x
            x    C       291       22.940771    6.904710   12.439788   x
            x    C       292        9.435770    6.911209   12.441875   x
            x    C       293       14.830761   16.251167   12.444271   x
            x    C       294       53.850215   23.223175   12.509463   x
            x    C       295       55.196027   25.552496   12.510062   x
            x    C       296       41.748614   25.552650   12.490397   x
            x    C       297       47.129027   34.870977   12.488236   x
            x    C       298       10.778731    4.577007   12.454086   x
            x    C       299        6.754963   11.575981   12.476401   x
            x    C       300       21.577168   13.928116   12.427056   x
            x    C       301        9.446826   16.241969   12.482105   x
            x    C       302       17.519354   16.258819   12.445613   x
            x    C       303       43.094929   23.223112   12.501302   x
            x    C       304       39.060013   30.212151   12.500830   x
            x    C       305       53.850906   32.541186   12.502673   x
            x    C       306       41.748534   34.872024   12.503426   x
            x    C       307       49.816845   34.870688   12.492991   x
            x    C       308       17.525894    2.224372   12.460990   x
            x    C       309       14.824663    2.228098   12.440470   x
            x    C       310        6.753004    6.912564   12.491334   x
            x    C       311       22.934686   11.586486   12.461495   x
            x    C       312       13.484667   18.575574   12.495655   x
            x    C       313       49.816842   20.893462   12.512115   x
            x    C       314       47.128747   20.893191   12.512479   x
            x    C       315       39.060565   25.553248   12.513460   x
            x    C       316       55.196352   30.211207   12.507988   x
            x    C       317       45.782629   37.200885   12.514367   x
            x    C       318        5.410346    9.244844   12.499673   x
            x    C       319        5.411954   13.907005   12.508167   x
            x    C       320        6.759312   16.236537   12.514225   x
            x    C       321       10.796665   18.569710   12.512723   x
            x    C       322       18.874880   18.579110   12.492171   x
            x    C       323       37.713478   27.882681   12.515824   x
            x    C       324       37.713946   32.542473   12.519233   x
            x    C       325       39.060498   34.872143   12.523433   x
            x    C       326       43.094893   37.201547   12.523714   x
            x    C       327       51.163587   37.200379   12.525943   x
            x    C       328       22.927304    2.233257   12.497104   x
            x    C       329        9.441176    2.244070   12.506632   x
            x    C       330       47.128487    2.251270   12.548327   x
            x    C       331        5.410055    4.580448   12.537040   x
            x    C       332       25.629383    6.910476   12.505551   x
            x    C       333       22.922912   16.254816   12.490771   x
            x    C       334       21.565140   18.578677   12.509398   x
            x    C       335       55.196042   20.893278   12.536789   x
            x    C       336       41.749077   20.893126   12.536424   x
            x    C       337       14.836684   20.901277   12.540502   x
            x    C       338       37.714014   23.223756   12.545544   x
            x    C       339       57.883312   25.552901   12.537415   x
            x    C       340       55.197163   34.870901   12.534688   x
            x    C       341       53.851484   37.200459   12.544240   x
            x    C       342       25.615489    2.245573   12.527566   x
            x    C       343        6.755061    2.249559   12.549800   x
            x    C       344       41.748472    2.251811   12.563145   x
            x    C       345       49.816917    2.251037   12.551552   x
            x    C       346       26.964341    4.577430   12.535283   x
            x    C       347       26.968047    9.245157   12.541781   x
            x    C       348        2.725436    9.243402   12.546181   x
            x    C       349        1.380724   11.574099   12.560232   x
            x    C       350       25.625875   11.578696   12.520507   x
            x    C       351        2.725525   13.904605   12.546832   x
            x    C       352       45.782334   18.563564   12.547366   x
            x    C       353       51.163037   18.563631   12.543954   x
            x    C       354       53.850722   18.563345   12.552148   x
            x    C       355       43.094815   18.563593   12.562726   x
            x    C       356        5.414682   18.565864   12.556885   x
            x    C       357       57.883867   20.892928   12.555600   x
            x    C       358       39.060944   20.893665   12.560525   x
            x    C       359        9.451858   20.896831   12.564547   x
            x    C       360       17.524610   20.904161   12.536226   x
            x    C       361       59.229820   23.223189   12.559232   x
            x    C       362       59.229540   27.882163   12.556745   x
            x    C       363       35.024971   27.883151   12.548638   x
            x    C       364       33.677693   30.213117   12.559162   x
            x    C       365       57.883659   30.211496   12.540659   x
            x    C       366       35.025702   32.542516   12.547537   x
            x    C       367       13.477553   37.179026   12.510572   x
            x    C       368       18.880691   37.180287   12.519388   x
            x    C       369       21.570840   37.186887   12.527433   x
            x    C       370       10.790367   37.192556   12.538123   x
            x    C       371       37.714776   37.201846   12.555563   x
            x    C       372       39.060557    2.251927   12.578337   x
            x    C       373       55.197643    2.250712   12.584453   x
            x    C       374        2.724601    4.581684   12.576825   x
            x    C       375       43.094305    4.581982   12.595060   x
            x    C       376       51.163484    4.581669   12.591467   x
            x    C       377       45.782174    4.581841   12.585910   x
            x    C       378        1.380593    6.912592   12.575644   x
            x    C       379       26.961771   13.910706   12.555541   x
            x    C       380        1.380084   16.234389   12.570255   x
            x    C       381       25.612044   16.242576   12.539859   x
            x    C       382       59.230465   18.562844   12.580566   x
            x    C       383        2.726646   18.563839   12.577729   x
            x    C       384        6.763768   20.894396   12.582722   x
            x    C       385       22.912868   20.902011   12.566535   x
            x    C       386       35.025114   23.224075   12.575277   x
            x    C       387       10.801153   23.224414   12.600154   x
            x    C       388       18.874748   23.229131   12.583103   x
            x    C       389       13.489128   23.227290   12.587535   x
            x    C       390       33.677237   25.553730   12.573192   x
            x    C       391       59.229240   32.541607   12.571840   x
            x    C       392       33.679846   34.872568   12.565351   x
            x    C       393       57.884048   34.871207   12.566138   x
            x    C       394       26.956610   37.197011   12.565169   x
            x    C       395       35.027065   37.201810   12.572232   x
            x    C       396       30.993954    2.250607   12.584328   x
            x    C       397        1.379671    2.251346   12.609825   x
            x    C       398       33.681875    2.251995   12.592560   x
            x    C       399       57.885141    2.250930   12.603812   x
            x    C       400       29.651243    4.581511   12.576299   x
            x    C       401       61.918885    4.581749   12.620906   x
            x    C       402       53.851772    4.581470   12.602477   x
            x    C       403       63.264873    6.912192   12.607960   x
            x    C       404       30.995740    6.912108   12.605258   x
            x    C       405       49.816674    6.912117   12.615984   x
            x    C       406       47.128602    6.912052   12.617054   x
            x    C       407       29.653101    9.243985   12.594451   x
            x    C       408       61.919037    9.242675   12.613094   x
            x    C       409       63.264571   11.573293   12.595031   x
            x    C       410       59.231118   13.903374   12.612836   x
            x    C       411       61.918495   13.903777   12.599702   x
            x    C       412       49.816527   16.233810   12.575150   x
            x    C       413       47.128388   16.233976   12.580343   x
            x    C       414       55.197270   16.233636   12.587300   x
            x    C       415       41.748652   16.234415   12.608246   x
            x    C       416       57.884631   16.233220   12.593511   x
            x    C       417       63.263707   16.233801   12.589251   x
            x    C       418       61.917775   18.563324   12.588182   x
            x    C       419       37.714854   18.563822   12.603475   x
            x    C       420       26.954565   18.569849   12.585246   x
            x    C       421       63.263574   20.893031   12.594735   x
            x    C       422       33.678677   20.894194   12.605218   x
            x    C       423        1.380675   20.893598   12.600602   x
            x    C       424       25.602409   20.897819   12.589424   x
            x    C       425       61.917570   23.223085   12.587649   x
            x    C       426       29.639683   23.224267   12.612641   x
            x    C       427       21.562582   23.228981   12.591121   x
            x    C       428       30.987479   25.553820   12.601274   x
            x    C       429       63.263459   25.552817   12.610444   x
            x    C       430       17.525892   25.555255   12.613958   x
            x    C       431       14.838206   25.554048   12.619695   x
            x    C       432       61.916676   27.881999   12.597816   x
            x    C       433       29.638917   27.883771   12.605377   x
            x    C       434       30.987859   30.213444   12.588829   x
            x    C       435       26.950945   32.541347   12.603736   x
            x    C       436       29.640566   32.542791   12.591218   x
            x    C       437       17.525313   34.857461   12.559594   x
            x    C       438       14.835515   34.857611   12.563085   x
            x    C       439       22.916534   34.863669   12.576473   x
            x    C       440        9.447636   34.865182   12.604814   x
            x    C       441       25.606171   34.868644   12.581440   x
            x    C       442       30.990588   34.871464   12.580683   x
            x    C       443       29.646008   37.200995   12.576368   x
            x    C       444        5.411747   37.198781   12.603562   x
            x    C       445       59.230229   37.200665   12.599189   x
            x    C       446       63.263600    2.251506   12.622624   x
            x    C       447       59.231459    4.581512   12.625086   x
            x    C       448       37.714743    4.582343   12.615734   x
            x    C       449       35.027050    4.582242   12.617478   x
            x    C       450       57.885647    6.912120   12.632434   x
            x    C       451       55.198101    6.911990   12.630252   x
            x    C       452       33.682434    6.912855   12.632668   x
            x    C       453       39.060373    6.912598   12.643208   x
            x    C       454       41.748277    6.912241   12.633265   x
            x    C       455       43.094385    9.242622   12.649065   x
            x    C       456       45.782227    9.242407   12.638256   x
            x    C       457       59.231774    9.242548   12.632388   x
            x    C       458       53.851664    9.242236   12.635892   x
            x    C       459       51.163732    9.242144   12.633501   x
            x    C       460       55.198023   11.572663   12.632408   x
            x    C       461       49.816787   11.572646   12.628786   x
            x    C       462       47.128437   11.573044   12.634119   x
            x    C       463       30.995479   11.575678   12.625844   x
            x    C       464       57.885608   11.572968   12.628885   x
            x    C       465       53.851727   13.903317   12.610569   x
            x    C       466       51.163347   13.903399   12.608697   x
            x    C       467       45.782305   13.903926   12.617504   x
            x    C       468       43.094313   13.904258   12.632355   x
            x    C       469       29.649964   13.906240   12.606879   x
            x    C       470       39.060959   16.234251   12.627585   x
            x    C       471       33.681323   16.234721   12.641697   x
            x    C       472       30.992956   16.236909   12.626410   x
            x    C       473       29.644242   18.566176   12.612988   x
            x    C       474       35.026403   18.564668   12.620952   x
            x    C       475       30.989417   20.895239   12.615870   x
            x    C       476       26.949358   23.225350   12.614865   x
            x    C       477        5.416803   23.223221   12.623207   x
            x    C       478        2.728027   23.223059   12.624915   x
            x    C       479       25.599932   25.554762   12.622507   x
            x    C       480       22.910638   25.555420   12.621665   x
            x    C       481        1.380680   25.552704   12.637683   x
            x    C       482        6.764987   25.552732   12.651432   x
            x    C       483        9.454031   25.552751   12.641267   x
            x    C       484       10.802122   27.881786   12.657397   x
            x    C       485       13.490433   27.881162   12.644253   x
            x    C       486       26.948516   27.884103   12.623530   x
            x    C       487       21.562837   27.883058   12.630355   x
            x    C       488       18.874702   27.881839   12.631858   x
            x    C       489       22.912065   30.210669   12.627171   x
            x    C       490       17.525689   30.207706   12.629191   x
            x    C       491       14.838209   30.207791   12.638217   x
            x    C       492       63.262870   30.211575   12.626061   x
            x    C       493       25.601175   30.213003   12.620643   x
            x    C       494       21.564510   32.536514   12.605615   x
            x    C       495       18.875848   32.533802   12.604997   x
            x    C       496       13.487679   32.533426   12.617069   x
            x    C       497       10.799604   32.538350   12.635501   x
            x    C       498       61.916506   32.541532   12.611451   x
            x    C       499        6.759614   34.869718   12.630298   x
            x    C       500        1.379686   34.871190   12.645970   x
            x    C       501       63.262620   34.871748   12.631102   x
            x    C       502       61.917214   37.201352   12.620483   x
            x    C       503        2.724809   37.201237   12.625197   x
            x    C       504       35.026834    9.243548   12.658688   x
            x    C       505       37.714234    9.243276   12.664898   x
            x    C       506       39.059961   11.573963   12.667931   x
            x    C       507       41.748250   11.573595   12.656717   x
            x    C       508       33.682573   11.574512   12.656357   x
            x    C       509       37.714771   13.904551   12.658884   x
            x    C       510       35.027157   13.904812   12.659765   x
            x    C       511        2.727814   27.882224   12.663038   x
            x    C       512        5.416596   27.882258   12.672212   x
            x    C       513        6.763892   30.211915   12.675791   x
            x    C       514        9.452891   30.210619   12.664886   x
            x    C       515        1.380308   30.211634   12.658189   x
            x    C       516        5.414617   32.540674   12.665304   x
            x    C       517        2.726612   32.541709   12.664038   x
            xxxxxxxxxxxxxxxxxxxxxxxxxxxxxxxxxxxxxxxxxxxxxxxxxxxxxxxxxxxx
 

LBFGS: continuation file name is "graphite.continuation"
 LBFGS: Restarting previous  geometry optimization.
 avg_mass=  21804.790539628921
 Enthalpy contributions:
                  total energy=  -2.74355808E+003 Eh
        diagonal pressure term=   0.00000000E+000 Eh
    off-diagonal pressure term=   0.00000000E+000 Eh
 LBFGS: finished iteration   0  with enthalpy= -2.743558081316E+003 Eh
  
 +-----------+-----------------+-----------------+------------+-----+ <-- LBFGS
 | Parameter |      value      |    tolerance    |    units   | OK? | <-- LBFGS
 +-----------+-----------------+-----------------+------------+-----+ <-- LBFGS
 |  dE/ion   |   0.000000E+000 |   1.000000E-006 |         Eh | No  | <-- LBFGS
 |  |F|max   |   1.882553E-003 |   2.000000E-003 |    Eh/Bohr | Yes | <-- LBFGS
 |  |dR|max  |   0.000000E+000 |   5.000000E-003 |       Bohr | No  | <-- LBFGS
 +-----------+-----------------+-----------------+------------+-----+ <-- LBFGS
  

================================================================================
 Starting LBFGS iteration    1 ...
================================================================================
 Writing xyz coordinates to file "graphite.xyz" ... done

 Writing continuation file "graphite.continuation" ...done
 Backing up NGWFs to file "graphite.tightbox_ngwfs.bfgs_back" ... done
 Backing up Hamiltonian to file "graphite.ham.bfgs_back" ... done
  
 +------------+-------------+-------------+-----------------+ <-- min LBFGS
 |    Step    |   lambda    |   F.delta   |    enthalpy     | <-- min LBFGS
 +------------+-------------+-------------+-----------------+ <-- min LBFGS
 |  previous  |    0.000000 |    0.000042 |    -2743.558081 | <-- min LBFGS
 +------------+-------------+-------------+-----------------+ <-- min LBFGS
  

--------------------------------------------------------------------------------
 LBFGS: starting iteration   1 with trial guess (lambda=    1.000000)
--------------------------------------------------------------------------------
 
                           -------------------------------
                                     Cell Contents
                           -------------------------------
 
            xxxxxxxxxxxxxxxxxxxxxxxxxxxxxxxxxxxxxxxxxxxxxxxxxxxxxxxxxxxx
            x  Element    Atom      Absolute co-ordinates of atoms     x
            x            Number        x           y           z       x
            x----------------------------------------------------------x
            x    Li        1       20.480387    6.721263   16.069126   x
            x    Li        2       15.778033    9.440748   16.044376   x
            x    Li        3       20.375198   11.950469   16.142921   x
            x    Li        4       15.872285    4.150597   16.204299   x
            x    Li        5       18.149150    8.144609   21.087735   x
            x    C         6       16.199936    9.200353    6.345189   x
            x    C         7       48.485858   27.839764    6.311031   x
            x    C         8       17.547636    6.869672    6.362112   x
            x    C         9       13.511084    9.200174    6.337338   x
            x    C        10       17.547496   11.530927    6.352436   x
            x    C        11       12.163900   11.530627    6.333027   x
            x    C        12       13.511445   13.860909    6.339026   x
            x    C        13       16.200190   13.861284    6.348742   x
            x    C        14       49.832892   25.509739    6.323689   x
            x    C        15       45.797013   27.839788    6.313196   x
            x    C        16       49.833013   30.169847    6.317282   x
            x    C        17       44.449903   30.170009    6.316668   x
            x    C        18       45.797032   32.500129    6.323376   x
            x    C        19       48.485883   32.500011    6.323312   x
            x    C        20       16.200229    4.539070    6.374431   x
            x    C        21       12.163693    6.869544    6.351399   x
            x    C        22       20.236776    6.869684    6.379020   x
            x    C        23       20.236544   11.530947    6.375063   x
            x    C        24        9.475286   11.530132    6.342479   x
            x    C        25       48.485737   23.179725    6.338851   x
            x    C        26       44.449903   25.509746    6.327882   x
            x    C        27       52.521613   25.509771    6.337011   x
            x    C        28       52.521753   30.169769    6.333512   x
            x    C        29       41.761020   30.170076    6.334052   x
            x    C        30       13.511237    4.539161    6.371233   x
            x    C        31        9.475051    6.869510    6.361353   x
            x    C        32       21.584035    9.200279    6.386101   x
            x    C        33        8.128236    9.199818    6.356173   x
            x    C        34        8.128609   13.860417    6.355903   x
            x    C        35       17.547897   16.191497    6.369933   x
            x    C        36       12.164532   16.190960    6.353110   x
            x    C        37       45.796967   23.179724    6.343644   x
            x    C        38       41.761086   25.509819    6.347489   x
            x    C        39       53.868726   27.839750    6.343558   x
            x    C        40       40.413954   27.839958    6.347587   x
            x    C        41       40.413890   32.500229    6.352578   x
            x    C        42       49.832996   34.830008    6.349718   x
            x    C        43       44.449794   34.830260    6.345784   x
            x    C        44       12.164156    2.208872    6.398970   x
            x    C        45       17.547924    2.208765    6.401197   x
            x    C        46       21.584046    4.539242    6.399003   x
            x    C        47       24.272769    9.200288    6.410620   x
            x    C        48       21.583853   13.861435    6.392299   x
            x    C        49        9.476015   16.190387    6.362483   x
            x    C        50       20.236369   16.191489    6.390007   x
            x    C        51       13.512268   18.520786    6.377146   x
            x    C        52       16.200610   18.521216    6.382901   x
            x    C        53       44.449803   20.849821    6.378680   x
            x    C        54       49.832700   20.849768    6.369176   x
            x    C        55       53.868626   23.179785    6.363580   x
            x    C        56       56.557424   27.839758    6.374544   x
            x    C        57       53.868851   32.499738    6.359720   x
            x    C        58       41.760955   34.830294    6.360184   x
            x    C        59       52.521750   34.829830    6.366808   x
            x    C        60       45.796876   37.160224    6.372009   x
            x    C        61       48.485728   37.160093    6.373274   x
            x    C        62       20.236637    2.208860    6.409489   x
            x    C        63        9.475515    2.209255    6.409725   x
            x    C        64        8.128331    4.539215    6.391329   x
            x    C        65       24.272696    4.539659    6.415259   x
            x    C        66       25.619732    6.869914    6.421666   x
            x    C        67        5.439901    9.199686    6.383661   x
            x    C        68        4.093188   11.529985    6.393552   x
            x    C        69       24.272535   13.860970    6.419066   x
            x    C        70        5.440140   13.860032    6.381300   x
            x    C        71        8.129200   18.520333    6.393376   x
            x    C        72       52.521463   20.849856    6.377995   x
            x    C        73       41.761110   20.849896    6.397877   x
            x    C        74       40.414068   23.179856    6.380831   x
            x    C        75       56.557317   23.179801    6.387372   x
            x    C        76       57.904372   25.509749    6.394268   x
            x    C        77       37.725312   27.840090    6.379617   x
            x    C        78       36.378229   30.170157    6.391974   x
            x    C        79       56.557447   32.499645    6.391653   x
            x    C        80       37.725228   32.500200    6.380587   x
            x    C        81       40.413953   37.160240    6.394167   x
            x    C        82       25.619336    2.209391    6.431894   x
            x    C        83       41.760943    2.210388    6.418277   x
            x    C        84       49.832834    2.210180    6.411929   x
            x    C        85       44.449701    2.210370    6.408101   x
            x    C        86       52.521602    2.210030    6.425010   x
            x    C        87        5.439958    4.539397    6.415497   x
            x    C        88        4.093177    6.869474    6.411196   x
            x    C        89       25.619658   11.530845    6.427637   x
            x    C        90        4.093434   16.190189    6.404464   x
            x    C        91        5.440656   18.520005    6.411696   x
            x    C        92       21.583618   18.521363    6.418772   x
            x    C        93       48.485526   18.519925    6.401634   x
            x    C        94       45.796822   18.519965    6.408147   x
            x    C        95       53.868492   18.519893    6.414828   x
            x    C        96       57.904287   20.849784    6.415609   x
            x    C        97        9.476754   20.850052    6.416556   x
            x    C        98       17.548148   20.850867    6.415903   x
            x    C        99       12.165260   20.850398    6.407990   x
            x    C       100       20.236209   20.850937    6.429943   x
            x    C       101       37.725462   23.180035    6.410235   x
            x    C       102       36.378337   25.510078    6.407359   x
            x    C       103       57.904390   30.169705    6.399188   x
            x    C       104       36.378395   34.830165    6.405090   x
            x    C       105       37.725309   37.160083    6.413104   x
            x    C       106       53.868760   37.159696    6.406160   x
            x    C       107       16.200604   37.158469    6.424124   x
            x    C       108       13.511984   37.158681    6.425295   x
            x    C       109       21.583795   37.158608    6.434373   x
            x    C       110       28.307761    2.209936    6.442164   x
            x    C       111       29.654675    4.539919    6.449504   x
            x    C       112       45.796751    4.540239    6.440772   x
            x    C       113       48.485567    4.540151    6.440740   x
            x    C       114       28.308068    6.870170    6.443876   x
            x    C       115       28.308047   11.530537    6.455001   x
            x    C       116        1.404811   11.529865    6.426829   x
            x    C       117       25.619334   16.191145    6.441758   x
            x    C       118       52.521435   16.189979    6.440066   x
            x    C       119       49.832684   16.190015    6.437032   x
            x    C       120        1.404987   16.189931    6.428380   x
            x    C       121       56.557250   18.519894    6.426898   x
            x    C       122       24.271962   18.520941    6.441054   x
            x    C       123       40.414116   18.520129    6.440073   x
            x    C       124       60.593013   20.849873    6.433297   x
            x    C       125       61.940008   23.179745    6.440755   x
            x    C       126       13.512830   23.180082    6.438856   x
            x    C       127       16.200923   23.180396    6.439765   x
            x    C       128       60.592974   25.509771    6.427446   x
            x    C       129       60.592926   30.169530    6.437210   x
            x    C       130       33.689739   30.170134    6.425883   x
            x    C       131       57.904335   34.829504    6.426131   x
            x    C       132       20.236377   34.828898    6.452791   x
            x    C       133       17.548194   34.828704    6.450659   x
            x    C       134       33.689872   34.829953    6.428900   x
            x    C       135       24.272126   37.159268    6.440475   x
            x    C       136       56.557392   37.159480    6.430744   x
            x    C       137        8.128836   37.158963    6.446193   x
            x    C       138       33.689901    2.210060    6.450203   x
            x    C       139       57.904369    2.209592    6.462722   x
            x    C       140       36.378433    2.210236    6.442832   x
            x    C       141        1.404901    2.209426    6.467599   x
            x    C       142        4.093298    2.209308    6.448816   x
            x    C       143       37.725318    4.540155    6.463807   x
            x    C       144       53.868652    4.539889    6.461351   x
            x    C       145       32.343110    4.540230    6.461288   x
            x    C       146       40.413898    4.540255    6.455042   x
            x    C       147       56.557400    4.539709    6.472714   x
            x    C       148        0.058078    4.539426    6.464205   x
            x    C       149       49.832692    6.870017    6.470239   x
            x    C       150       44.449602    6.870121    6.470682   x
            x    C       151       52.521475    6.869910    6.475917   x
            x    C       152        1.404850    6.869594    6.442440   x
            x    C       153       29.654728    9.200416    6.462040   x
            x    C       154        0.058032    9.199766    6.447524   x
            x    C       155       48.485480   13.860115    6.465100   x
            x    C       156       29.654712   13.860746    6.473196   x
            x    C       157        0.058021   13.860012    6.437701   x
            x    C       158       45.796772   13.860157    6.471117   x
            x    C       159       53.868568   13.860005    6.469947   x
            x    C       160       61.939940   13.859908    6.459355   x
            x    C       161       44.449721   16.190150    6.447755   x
            x    C       162       60.593007   16.189962    6.453564   x
            x    C       163       28.307764   16.190589    6.465544   x
            x    C       164       41.761100   16.190228    6.462497   x
            x    C       165       57.904330   16.189943    6.454272   x
            x    C       166       61.939958   18.519845    6.444869   x
            x    C       167        0.058127   18.519993    6.440847   x
            x    C       168       37.725512   18.520257    6.460262   x
            x    C       169        1.405153   20.849772    6.448549   x
            x    C       170       25.618814   20.850723    6.465876   x
            x    C       171        4.093776   20.849940    6.441372   x
            x    C       172       33.690005   20.850292    6.466278   x
            x    C       173       36.378554   20.850105    6.445652   x
            x    C       174        5.441098   23.179676    6.461918   x
            x    C       175       21.583328   23.180501    6.461191   x
            x    C       176        0.058189   23.179741    6.457470   x
            x    C       177        8.129717   23.179818    6.452771   x
            x    C       178       24.271480   23.180423    6.472515   x
            x    C       179       32.342837   23.180202    6.462453   x
            x    C       180       17.548215   25.510009    6.467587   x
            x    C       181       12.165592   25.509766    6.467873   x
            x    C       182       20.236109   25.510086    6.473533   x
            x    C       183       33.689814   25.510208    6.440200   x
            x    C       184       61.939924   27.839606    6.449029   x
            x    C       185       32.342739   27.840164    6.445755   x
            x    C       186       16.200883   32.498994    6.470959   x
            x    C       187       61.939860   32.499433    6.462681   x
            x    C       188       32.342858   32.500085    6.437369   x
            x    C       189       13.512682   32.499225    6.475242   x
            x    C       190       21.583479   32.499244    6.474556   x
            x    C       191       29.654333   32.499877    6.459069   x
            x    C       192       12.164948   34.828885    6.456089   x
            x    C       193       28.307458   34.829814    6.455793   x
            x    C       194       60.592938   34.829334    6.455682   x
            x    C       195        9.476374   34.829241    6.466757   x
            x    C       196       25.618971   34.829359    6.459572   x
            x    C       197       29.654510   37.159566    6.448118   x
            x    C       198       32.343065   37.159953    6.442155   x
            x    C       199        5.440367   37.159262    6.462952   x
            x    C       200       60.593002    2.209502    6.474108   x
            x    C       201       61.939930    4.539548    6.478705   x
            x    C       202       33.689857    6.870202    6.480203   x
            x    C       203       41.760920    6.870154    6.478348   x
            x    C       204       60.593043    6.869659    6.482753   x
            x    C       205       36.378329    6.870210    6.486034   x
            x    C       206       57.904406    6.869739    6.488633   x
            x    C       207       37.725278    9.200291    6.501906   x
            x    C       208       45.796788    9.200105    6.485483   x
            x    C       209       56.557378    9.199869    6.491150   x
            x    C       210       32.343033    9.200364    6.483369   x
            x    C       211       40.413830    9.200216    6.497916   x
            x    C       212       48.485526    9.200047    6.482244   x
            x    C       213       53.868649    9.199909    6.490010   x
            x    C       214       61.940004    9.199764    6.473431   x
            x    C       215       33.689899   11.530507    6.498292   x
            x    C       216       41.760962   11.530299    6.498278   x
            x    C       217       60.593040   11.529919    6.474819   x
            x    C       218       36.378406   11.530427    6.505740   x
            x    C       219       52.521475   11.529970    6.483400   x
[...]
 C    51 -- C    71       -0.08      0.00      5.38323
 C    22 -- C    66       -0.08      0.00      5.38325
 C    28 -- C   103       -0.08      0.00      5.38329
 C    14 -- C    26       -0.08      0.00      5.38329
 C    16 -- C    17       -0.08      0.00      5.38330
 C    25 -- C    55       -0.08      0.00      5.38331
 C    19 -- C    57       -0.08      0.00      5.38338
 C   343 -- C   440       -0.08     -0.00      5.38338
 C   331 -- C   348       -0.08     -0.00      5.38340
 C   300 -- C   379       -0.08      0.00      5.38342
 C     7 -- C    39       -0.08      0.00      5.38344
 C   420 -- C   469       -0.08     -0.00      5.38348
 C   363 -- C   433       -0.08      0.00      5.38348
 C   107 -- C   109       -0.08      0.00      5.38368
 C    35 -- C    36       -0.08      0.00      5.38381
 C    44 -- C    45       -0.08      0.00      5.38384
 C   452 -- C   463       -0.08     -0.00      5.38388
 C    13 -- C    48       -0.08      0.00      5.38394
 C   434 -- C   493       -0.08      0.00      5.38400
 C    10 -- C    11       -0.08      0.00      5.38416
 C     8 -- C    21       -0.08      0.00      5.38428
 C   424 -- C   475       -0.08      0.00      5.38436
 C   428 -- C   479       -0.08      0.00      5.38439
 C    20 -- C    46       -0.08      0.00      5.38449
 C   431 -- C   483       -0.08      0.00      5.38457
 C   293 -- C   301       -0.08      0.00      5.38468
 C     6 -- C    32       -0.08      0.00      5.38471
 C   491 -- C   514       -0.08      0.00      5.38508
 C   270 -- C   292       -0.08      0.00      5.38510
 C   285 -- C   312       -0.08     -0.00      5.38522
 C   337 -- C   359       -0.08      0.00      5.38533
 C   486 -- C   487       -0.08      0.00      5.38536
 C   279 -- C   347       -0.08      0.00      5.38557
 C   299 -- C   301       -0.08     -0.00      5.38559
 C   394 -- C   400       -0.08     -0.00      5.38587
 C   427 -- C   476       -0.08      0.00      5.38591
 C   369 -- C   394       -0.08      0.00      5.38598
 C   342 -- C   439       -0.08     -0.00      5.38626
 C   435 -- C   494       -0.08      0.00      5.38637
 C   485 -- C   488       -0.08      0.00      5.38645
 C   346 -- C   407       -0.08     -0.00      5.38657
 C   430 -- C   480       -0.08      0.00      5.38657
 C   310 -- C   329       -0.08     -0.00      5.38672
 C   438 -- C   440       -0.08      0.00      5.38681
 C   379 -- C   407       -0.08     -0.00      5.38681
 C   388 -- C   389       -0.08      0.00      5.38704
 C   280 -- C   310       -0.08     -0.00      5.38740
 C   489 -- C   490       -0.08      0.00      5.38741
 C   334 -- C   420       -0.08      0.00      5.38817
 C   360 -- C   385       -0.08      0.00      5.38900
 C   495 -- C   496       -0.08      0.00      5.38910
 C   266 -- C   302       -0.08     -0.00      5.39066
 C   312 -- C   322       -0.08      0.00      5.39068
 C   290 -- C   368       -0.08     -0.00      5.39090
 C   291 -- C   350       -0.08      0.00      5.39145
 C   437 -- C   439       -0.08      0.00      5.39154
 C   265 -- C   298       -0.08     -0.00      5.39225
 C   274 -- C   284       -0.08     -0.00      5.39562
 C   311 -- C   332       -0.08      0.00      5.39622
 C   333 -- C   350       -0.08     -0.00      5.39886
 C   298 -- C   367       -0.08     -0.00      5.39932
 C   275 -- C   286       -0.08      0.00      5.39939
 C   308 -- C   328       -0.08      0.00      5.40074
 C   328 -- C   332       -0.08     -0.00      5.40174
 C   274 -- C   275       -0.08     -0.00      5.40207
 C   367 -- C   368       -0.08      0.00      5.40355
 C   270 -- C   271       -0.07     -0.00      5.40381
 C   302 -- C   333       -0.08      0.00      5.40383
 C   278 -- C   279       -0.07     -0.00      5.40387
 C   264 -- C   300       -0.07      0.00      5.40710
 C   262 -- C   309       -0.07     -0.00      5.40790
 C   270 -- C   308       -0.07     -0.00      5.40953
 C   279 -- C   286       -0.07     -0.00      5.40985
 C   264 -- C   290       -0.07      0.00      5.41018
 C   262 -- C   266       -0.07     -0.00      5.41040
 Li    1 -- Li    2        0.16      0.00      5.41199
 C   278 -- C   284       -0.07      0.00      5.41332
 C   262 -- C   291       -0.07      0.00      5.41383
 C   264 -- C   265       -0.07      0.00      5.41390
 C   271 -- C   311       -0.07      0.00      5.41399
 Li    2 -- Li    5        0.21      0.00      5.55301
 Li    1 -- Li    5        0.21      0.00      5.58467
=============================================================


============== Orbital energy and occupancy information for spin 1 =============

      Total number of orbitals:    2073
        Occupancy sum (kernel):    1029.768850652
   Occupancy sum (eigenvalues):    1029.768850652
                 HOMO-LUMO gap:       0.024509827 Eh
                 Mid-gap level:      -0.157616213 Eh

                        Orbital | Energy (Eh) | Occupancy
                            1    -1.926966651   1.0000000
                        .......   ...........   .........
                         1021    -0.191490194   0.9996324
                         1022    -0.187438013   0.9988931
                         1023    -0.187417282   0.9988867
                         1024    -0.186983553   0.9987478
                         1025    -0.186948933   0.9987360
                         1026    -0.186188186   0.9984458
                         1027    -0.186173594   0.9984396
                         1028    -0.179981004   0.9914514
                         1029    -0.169897026   0.8840784
                         1030    -0.169871126   0.8833554
                        ....... -- gap at 0K -- .........
                         1031    -0.145361299   0.0094876
                         1032    -0.144866625   0.0083101
                         1033    -0.132096987   0.0002585
                         1034    -0.131484817   0.0002187
                         1035    -0.130361675   0.0001617
                         1036    -0.130019195   0.0001474
                         1037    -0.123697901   0.0000265
                         1038    -0.123437829   0.0000247
                         1039    -0.121959801   0.0000165
                         1040    -0.121727820   0.0000155
                        .......   ...........   .........
                         2073     0.759498572   0.0000000

================================================================================

============== Orbital energy and occupancy information for spin 2 =============

      Total number of orbitals:    2073
        Occupancy sum (kernel):    1029.768850643
   Occupancy sum (eigenvalues):    1029.768850643
                 HOMO-LUMO gap:       0.024509827 Eh
                 Mid-gap level:      -0.157616213 Eh

                        Orbital | Energy (Eh) | Occupancy
                            1    -1.926966651   1.0000000
                        .......   ...........   .........
                         1021    -0.191490194   0.9996324
                         1022    -0.187438013   0.9988931
                         1023    -0.187417282   0.9988867
                         1024    -0.186983553   0.9987478
                         1025    -0.186948933   0.9987360
                         1026    -0.186188186   0.9984458
                         1027    -0.186173594   0.9984396
                         1028    -0.179981004   0.9914514
                         1029    -0.169897026   0.8840784
                         1030    -0.169871126   0.8833554
                        ....... -- gap at 0K -- .........
                         1031    -0.145361299   0.0094876
                         1032    -0.144866625   0.0083101
                         1033    -0.132096987   0.0002585
                         1034    -0.131484817   0.0002187
                         1035    -0.130361675   0.0001617
                         1036    -0.130019195   0.0001474
                         1037    -0.123697901   0.0000265
                         1038    -0.123437829   0.0000247
                         1039    -0.121959801   0.0000165
                         1040    -0.121727820   0.0000155
                        .......   ...........   .........
                         2073     0.759498572   0.0000000

================================================================================

===================== Writing canonical molecular orbitals =====================
    Spin 1
| Orbital  Energy (eV)  Norm     |
| HOMO-5   -5.08713931  1.000000 | 
| HOMO-4   -5.06643834  1.000000 | 
| HOMO-3   -5.06604127  1.000000 | 
| HOMO-2   -4.89753233  1.000000 | 
| HOMO-1   -4.62313333  1.000000 | 
| HOMO     -4.62242854  1.000000 | 
| LUMO     -3.95548222  1.000000 | 
| LUMO+1   -3.94202146  1.000000 | 
| LUMO+2   -3.59454193  1.000000 | 
| LUMO+3   -3.57788393  1.000000 | 
| LUMO+4   -3.54732167  1.000000 | 
| LUMO+5   -3.53800232  1.000000 | 
================================================================================

===================== Writing canonical molecular orbitals =====================
    Spin 2
| Orbital  Energy (eV)  Norm     |
| HOMO-5   -5.08713931  1.000000 | 
| HOMO-4   -5.06643834  1.000000 | 
| HOMO-3   -5.06604127  1.000000 | 
| HOMO-2   -4.89753233  1.000000 | 
| HOMO-1   -4.62313333  1.000000 | 
| HOMO     -4.62242854  1.000000 | 
| LUMO     -3.95548222  1.000000 | 
| LUMO+1   -3.94202146  1.000000 | 
| LUMO+2   -3.59454193  1.000000 | 
| LUMO+3   -3.57788393  1.000000 | 
| LUMO+4   -3.54732167  1.000000 | 
| LUMO+5   -3.53800232  1.000000 | 
================================================================================
 
=============== Density of States (DOS) calculation for UP spin ================
Writing "graphite_UP_DOS.txt" ... done
================================================================================
 
============== Density of States (DOS) calculation for DOWN spin ===============
Writing "graphite_DN_DOS.txt" ... done
================================================================================
 
Writing bands to file "graphite.val_bands" ... done

IS: Calculating electrolyte contribution to the atomic forces ...
================================================================================
 
***********************************************************
********** Summary of Forces (values in Eh/a) *************
*                                                         *
* ---------------------- Minimum ------------------------ *
* Atom:        46, |F|min =    0.00001940                 *
* Components:     Fx|min       Fy|min       Fz|min        *
*               0.00000063   0.00001671   0.00000984      *
*                                                         *
* ---------------------- Maximum ------------------------ *
* Atom:         2, |F|max =    0.00151292                 *
* Components:     Fx|max       Fy|max       Fz|max        *
*              -0.00043407   0.00006334  -0.00144793      *
*                                                         *
* ---------------- Root Mean Square Force --------------- *
*                  |F|rms =    0.00024330                 *
* Components:     Fx|rms       Fy|rms       Fz|rms        *
*               0.00012860   0.00008559   0.00018797      *
***********************************************************
 

                                                      hartree           kcal/mol
IS: NB: Energy of pure electrolyte:         -0.07750446799976         -48.634787

------------------------------ TIMING INFORMATION ------------------------------
AVERAGE TIME:   13694.561s on    128 proc(s)                                    
TOTAL TIME:     13694.566s on    128 proc(s)                                    
================= AVERAGE TIMINGS FROM ALL PROCS (CUMULATIVE) ==================
|| TAG                                    #calls    cpu time   %total  Gflops ||
|| onetep.F90 main loop imbalance       :     1        0.00s   0.000%  ------ ||
|| onetep.F90 final imbalance           :     1        0.00s   0.000%  ------ ||
|| density_fftbox_interp_mult_imbal     : 18600        0.00s   0.000%  ------ ||
|| sparse_set_to_garbage                :   328        0.02s   0.000%  ------ ||
|| ngwfs_initialise_from_radial         :     1        0.03s   0.000%  ------ ||
|| linalg_invert_sym_matrix             :     1        0.04s   0.000%  ------ ||
|| ewald_calculate_forces_realspace     :    12        0.05s   0.000%  ------ ||
|| vdwcorrection_calculate_forces       :    12        0.10s   0.001%  ------ ||
|| vdwcorrection_calculate_energy       :    12        0.14s   0.001%  ------ ||
|| basis_extract_function_from_box      :  2056        0.15s   0.001%  ------ ||
|| sparse_spam3toblacs_real_fast_imbal  :  1675        0.16s   0.001%  ------ ||
|| pseudopotentials_core_density        :    12        0.26s   0.002%  ------ ||
|| parallel_prepare_fd_halos_alloc      : 57231        0.32s   0.002%  ------ ||
|| pseudopotentials_local_on_grid       :    12        0.38s   0.003%  ------ ||
|| pseudopotentials_nonlocal_mat        :    47        0.43s   0.003%  ------ ||
|| sparse_blacstospam3_real_fast_imbal  :  1634        0.48s   0.004%  ------ ||
|| restart_hamiltonian_read             :    11        0.52s   0.004%  ------ ||
|| parallel_prepare_fd_halos_request    : 57231        0.54s   0.004%  ------ ||
|| sparse_spam3toblacs_real_fast_B2     : 214.4k       1.19s   0.009%  ------ ||
|| restart_hamiltonian_write            :    29        1.28s   0.009%  ------ ||
|| pseudo_make_structure_factor         :    12        1.47s   0.011%  ------ ||
|| smeared_ion_generate_potential_PBC   :    12        1.53s   0.011%  ------ ||
|| energy_and_force_init_cell           :     1        2.55s   0.019%  ------ ||
|| parallel_prepare_fd_halos_satisfy    : 57231        2.60s   0.019%  ------ ||
|| eigenstates_calculate                :     1        3.89s   0.028%  ------ ||
|| ngwf_gradient_coeffs                 :    29        4.29s   0.031%  ------ ||
|| restart_kernel_write                 :    41        5.42s   0.040%  ------ ||
|| sparse_init                          :    12        5.44s   0.040%  ------ ||
|| pseudo_local_calculate_forces        :    12        5.73s   0.042%  ------ ||
|| ewald_calculate_energy               :    12        6.10s   0.045%  ------ ||
|| integrals_grad_spam3                 :    12        7.33s   0.054%  ------ ||
|| nonsc_forces_ngwfs_calc              :    12        7.40s   0.054%  ------ ||
|| sparse_embed_hotelling_invert_embed  :    47        7.59s   0.055%  ------ ||
|| density_init_guess_real              :    12        7.91s   0.058%  ------ ||
|| pseudo_nlcc_calculate_forces         :    12        9.16s   0.067%  ------ ||
|| projectors_func_grad_ovlp_box_spam3  :    36       10.07s   0.074%  ------ ||
|| fourier_filter_cell                  :   406       11.09s   0.081% 203.910 ||
|| sparse_trace                         :  6384       11.10s   0.081%  ------ ||
|| pseudo_nl_calculate_forces           :    12       11.20s   0.082%  ------ ||
|| projectors_func_ovlp_box_spam3       :    47       12.38s   0.090%  ------ ||
|| restart_ngwfs_tightbox_input         :    11       15.73s   0.115%  ------ ||
|| projectors_init_fftbox_recip         :   199       19.30s   0.141%  ------ ||
|| ewald_calculate_forces_recipspace    :    12       20.20s   0.148%  ------ ||
|| ewald_calculate_forces               :    12       20.50s   0.150%  ------ ||
|| basis_copy_function_to_box           : 22398       20.80s   0.152%  ------ ||
|| boltzmann_init_steric_pot            :    12       20.90s   0.153%  ------ ||
|| parallel_prepare_fd_halos_comms_imbal: 57231       22.39s   0.164%  ------ ||
|| fourier_apply_box_pair               :  2357       22.68s   0.166%  1.678k ||
|| parallel_prepare_fd_halos_clear      : 57231       23.08s   0.169%  ------ ||
|| properties_calculate                 :     1       26.10s   0.191%  ------ ||
|| function_ops_brappd_ketppd_spam3     :    82       28.47s   0.208%  ------ ||
|| parallel_prepare_fd_halos_comms_wait : 57231       38.63s   0.282%  ------ ||
|| fourier_interpolate_cell             :   930       42.65s   0.311% 121.505 ||
|| integrals_kinetic_spam3              :    47       44.80s   0.327%  ------ ||
|| sparse_product                       :  4237       44.91s   0.328%  ------ ||
|| projectors_gradient_batch            :   116       52.64s   0.384%  ------ ||
|| sparse_spam3toblacs_real_fast_B1     : 214.4k      60.03s   0.438%  ------ ||
|| fourier_apply_cell_backward          :  3924       63.27s   0.462% 174.403 ||
|| sparse_spam3toblacs_real_fast        :  1675       63.89s   0.467%  ------ ||
|| basis_dot_function_with_box          : 3.731M      68.58s   0.501%  ------ ||
|| parallel_prepare_fd_halos            : 57231       87.87s   0.642%  ------ ||
|| cell_grid_extract_box_real           :  8120       95.10s   0.694%  ------ ||
|| sparse_blacstospam3_real_fast        :  1634      100.83s   0.736%  ------ ||
|| xc_energy_potential                  :   477      140.69s   1.027%  ------ ||
|| restart_ngwfs_tightbox_output        :    22      153.93s   1.124%  ------ ||
|| cell_grid_deposit_box_real           : 19200      182.26s   1.331%  ------ ||
|| fourier_apply_cell_forward           :  3876      201.23s   1.469%  54.167 ||
|| dense_eigensolve                     :   784      215.74s   1.575%  ------ ||
|| basis_add_function_to_box            : 11.51M     230.27s   1.681%  ------ ||
|| finite_difference_derivative         : 57231      273.93s   2.000%  ------ ||
|| edft_diag_ngwf_ham                   :   782      274.00s   2.001%  ------ ||
|| ngwf_gradient_build_batch            :   116      307.35s   2.244%  ------ ||
|| integrals_locpot_mat_els_batch       :   696      395.10s   2.885%  ------ ||
|| edft_apply_smearing_operator         :   391      416.17s   3.039%  ------ ||
|| hamiltonian_energy_components        :    14      438.26s   3.200%  ------ ||
|| ngwf_gradient_batch                  :   116      525.78s   3.839%  ------ ||
|| implicit_solvent_boltzmann_forces    :    12      554.07s   4.046%  ------ ||
|| ngwf_gradient_lnv                    :    29      555.55s   4.057%  ------ ||
|| density_batch_row_sums               :  1860      613.69s   4.481%  ------ ||
|| density_fftbox_deposit_to_cell       : 18600      746.71s   5.453%  ------ ||
|| smeared_ion_force_correction         :    24     1095.43s   7.999%  ------ ||
|| implicit_solvent_soft_sphere_forces  :    12     1147.73s   8.381%  ------ ||
|| potential_apply_to_ngwf_batch        :   696     1173.00s   8.565%  ------ ||
|| dl_mg_solver_calls                   :   465     1385.85s  10.120%  ------ ||
|| multigrid_calculate_hartree          :   465     1435.74s  10.484%  ------ ||
|| integrals_locpot_dbl_grid            :   348     1570.02s  11.465%  ------ ||
|| fourier_apply_box                    : 49336     1757.58s  12.834%  2.151k ||
|| density_fftbox_interpolate_multiply  : 18600     2054.63s  15.003%  ------ ||
|| forces_calculate                     :    12     2963.64s  21.641%  ------ ||
|| density_batch_interp_deposit         :  1860     3543.34s  25.874%  ------ ||
|| density_on_dbl_grid                  :   930     4363.04s  31.860%  ------ ||
|| hamiltonian_lhxc_calculate           :   439     5879.09s  42.930%  ------ ||
|| edft_calculate                       :    29     7287.85s  53.217%  ------ ||
|| ngwf_cg_optimise                     :    12     8785.26s  64.151%  ------ ||
|| energy_and_forces                    :    12    13633.05s  99.551%  ------ ||
|| total_time                           :     1    13694.56s 100.000%  ------ ||
================================================================================
Overhead of generating timer report: 
- 0 ms averaging over threads,
- 12 ms ensuring consistency across MPI ranks,
- 62 ms printing in order.

Job completed: 22-10-2023 14:02 (+0100)

