 +---------------------------------------------------------------+
 |                                                               |
 |        ####### #     # ####### ####### ####### ######         |
 |        #     # ##    # #          #    #       #     #        |
 |        #     # # #   # #          #    #       #     #        |
 |        #     # #  #  # #####      #    #####   ######         |
 |        #     # #   # # #          #    #       #              |
 |        #     # #    ## #          #    #       #              |
 |        ####### #     # #######    #    ####### #              |
 |                                                               |
 |        Linear-Scaling Ab Initio Total Energy Program          |
 |                                                               |
 |          Release for academic collaborators of ODG            |
 |                                             Version 6.1.59    |
 | Remote: https://github.com/onetep-devel/onetep.git            |
 | Local branch: master                                          |
 | Commit ID: 3df6b8ca88fa1735659d3248d54c94b50edec21b           |
 | Date: Thu Oct 5 13:49:52 2023 +0200                           |
 | Working tree clean                                            |
 |                                                               |
 +---------------------------------------------------------------+
 |                                                               |
 |  Authors:                                                     |
 |  Jacek Dziedzic, Peter D. Haynes, Nicholas D. M. Hine,        |
 |  Arash A. Mostofi, Mike C. Payne and Chris-Kriton Skylaris    |
 |                                                               |
 |  Contributors:                                                |
 |  J. Aarons, L. Andrinopoulos, P. W. Avraam, R. A. Bell,       |
 |  A. Bhandari, G. A. Bramley, R. J. Charlton, S. J. Clark,     |
 |  R. J. Clements, G. C. Constantinescu, F. Corsetti,           |
 |  N. Corsini, O. Dieguez, S. M. M. Dubois, K. K. B. Duff,      |
 |  J. M. Escartin, M. Escobar Azor, A. Greco,                   |
 |  H. Helal, Q. O. Hill, L. P. Lee, J.-H. Li,                   |
 |  E. B. Linscott, G. Moynihan, D. D. O`Regan,                  |
 |  O. K. Okan, M. J. S. Phipps, C. J. Pickard,                  |
 |  J. C. A. Prentice, M. I. J. Probert, L. E. Ratcliff,         |
 |  M. Robinson, A. Ruiz Serrano, M. dos Santos Dias,            |
 |  J. S. Spencer, E. W. Tait, G. Teobaldi, D. Turban,           |
 |  V. Vitale, K. A. Wilkinson, C. Weber, J. C. Womack,          |
 |  N. Yeung and T. J. Zuehlsdorff                               |
 |                                                               |
 |                                   Copyright (c) 2004-2023     |
 |                                                               |
 |  Please cite:                                                 |
 |  "The ONETEP linear-scaling density functional theory program"|
 |   J. Chem. Phys. 152(17) 174111 (2020)                        |
 |                                                               |
 |          in all publications arising from your use of ONETEP. |
 |                                                               |
 +---------------------------------------------------------------+
 |                                                               |
 |   ONETEP is based on developments described in the following  |
 |   publications:                                               |
 |                                                               |
 |  "Nonorthogonal generalized Wannier function pseudopotential  |
 |   plane-wave method".                                         |
 |   C.-K. Skylaris, A. A. Mostofi, P. D. Haynes, O. Dieguez,    |
 |   M. C. Payne.                                                |
 |   Phys. Rev. B 66 035119 (2002).                              |
 |                                                               |
 |  "Preconditioned iterative minimization for linear-scaling    |
 |   electronic structure calculations".                         |
 |   A. A. Mostofi, P. D. Haynes, C.-K. Skylaris, M. C. Payne.   |
 |   J. Chem. Phys. 119(17), pp.8842-8848 (2003).                |
 |                                                               |
 |  "Total-energy calculations on a real space grid with         |
 |   localized functions and a plane-wave basis".                |
 |   A. A. Mostofi, C.-K. Skylaris, P. D. Haynes, M. C. Payne.   |
 |   Comput. Phys. Commun. 147, pp.788-802 (2002).               |
 |                                                               |
 |  "Accurate kinetic energy evaluation in electronic structure  |
 |   calculations with localized functions on real space grids"  |
 |   C.-K. Skylaris, A. A. Mostofi, P. D. Haynes, C. J. Pickard, |
 |   M. C. Payne.                                                |
 |   Comput. Phys. Commun. 140, pp.315-322 (2001).               |
 |                                                               |
 |  "Accurate ionic forces and geometry optimization in linear-  |
 |   scaling density-functional theory with local orbitals"      |
 |   N. D. M. Hine, M. Robinson, P. D. Haynes, C.-K. Skylaris,   |
 |   M. C. Payne, and A. A. Mostofi.                             |
 |   Phys. Rev. B 83 195102 (2011).                              |
 |                                                               |
 +---------------------------------------------------------------+

Job started: 31-10-2023 23:22 (+0000)
 
Reading parameters from file "graphite.dat" ...... done

If your calculation crashes here, before "Checking processes and threads..."
is displayed, then your stack size is insufficient.
If so, use "ulimit -s unlimited" at runtime.
You can disable this check with "check_stack_size F".

Checking processes and threads...
   Determining the default number of threads...
      No default threads set at compilation time: defaulting to 1.
      OpenMP library call suggests 8 threads.
      Hybrid MPI-OpenMP compilation detected.
      Number of MPI processes > 1.
      OMP_NUM_THREADS environment variable present and
      its value matches the one obtained from the OpenMP library call.
      Using this value as default.
      Default threads: 8
      Default applies to threads_max and threads_num_fftboxes.
      Settings in the input file override this default.
   ... done

   Running with 128 MPI processes.
   There are 16 MPI processes running on the same node as the root process.
   Each MPI process is using: 
               1 threads for simulation cell FFTs.
               1 threads for parallel FFT box operations.
               8 threads for loops over batched FFT box operations.
               8 threads in other parallel regions.
   MPI Interface: S1 (use mpi_f08) (-DMPI -DUSE_MPI_F08).
   MPI_ASYNC_PROTECTS_NONBLOCKING: Yes. MPI_SUBARRAYS_SUPPORTED: Yes.
   GPU Interface: None.
... done

Basic input checks...
Resetting ngwf_cg_rotate to TRUE for EDFT calculations
... done

Reading geometry and species blocks from file "graphite.dat" ...
  Reading POSITIONS geometry from str.xyz

  <species_atomic_set> block not found: NGWF initialisation set to SOLVE
IS: Dielectric excluded regions:
    - NONE.
IS: Assigning soft sphere radii for soft sphere solvation...
IS: No soft sphere radii specified. Default Alvarez radii used for all atoms.

----------- SOFT SPHERE RADII -----------
Li  5.333
C   4.442
-----------------------------------------

    
  Number of PPD points along a3 set to 1.  This is 
  the default value, it may have been provided also in the input file.
... done


--------------------------------------------------------------------------------
---------------------------------- INPUT FILE ----------------------------------
--------------------------------------------------------------------------------

task geometryoptimization                                                       
geom_method LBFGS                                                               
geom_continuation T                                                             
write_xyz T                                                                     
edft_grand_canonical T                                                          
edft_reference_potential  -4.42 eV                                              
edft_electrode_potential 0.0 V                                                  
edft_nelec_thres 0.000001                                                       
is_dielectric_function soft_sphere                                              
is_implicit_solvent T                                                           
is_smeared_ion_rep T                                                            
is_include_apolar T                                                             
is_solvation_properties F                                                       
is_pbe                    full                                                  
is_pbe_temperature        298.15                                                
is_pbe_bc_debye_screening T                                                     
is_pbe_neutralisation_scheme counterions_auto                                   
is_pbe_energy_tolerance 1E+50                                                   
is_bc_coarseness 5                                                              
is_bc_threshold 1E-9                                                            
is_bulk_permittivity 90.7                                                       
is_solvent_surf_tension 0.0506 N/m                                              
%block sol_ions                                                                 
Li  +1 1.0                                                                      
PF6 -1 1.0                                                                      
%endblock sol_ions                                                              
is_steric_pot_type M                                                            
is_hc_steric_dens_isovalue  0.001                                               
is_hc_steric_smearing         0.4 bohr                                          
is_steric_write T                                                               
%block species_solvent_radius                                                   
Li 3.0                                                                          
C 3.0                                                                           
%endblock species_solvent_radius                                                
multigrid_bc:   P P P                                                           
ion_ion_bc:     P P P                                                           
pspot_bc:       P P P                                                           
smeared_ion_bc: P P P                                                           
mg_max_iters_vcycle 500                                                         
mg_vcyc_smoother_iter_pre 4                                                     
mg_vcyc_smoother_iter_post 4                                                    
mg_max_res_ratio 1000.0                                                         
mg_max_iters_newton 300                                                         
edft                    : T                                                     
edft_smearing_width     : 0.1 eV                                                
spin                    : 0.0                                                   
edft_spin_fix           : 2                                                     
spin_polarized          : T                                                     
cutoff_energy :  1000 eV                                                        
kernel_cutoff : 1000 bohr                                                       
xc_functional PBE                                                               
dispersion 4                                                                    
output_detail VERBOSE                                                           
do_properties T                                                                 
cube_format F                                                                   
dx_format F                                                                     
write_denskern T                                                                
write_tightbox_ngwfs T                                                          
write_hamiltonian T                                                             
%block species                                                                  
Li Li 3  5  8.0                                                                 
C  C  6  4  8.0                                                                 
%endblock species                                                               
%block species_pot                                                              
Li '/work/e89/e89/arihant/pseudo/Li.usp'                                        
C '/work/e89/e89/arihant/pseudo/C.usp'                                          
%endblock species_pot                                                           
%BLOCK LATTICE_CART                                                             
ang                                                                             
34.16920551     0.00000000     0.00000000                                       
0.00000000    19.72760000     0.00000000                                        
0.00000000     0.00000000   100.02798000                                        
%ENDBLOCK LATTICE_CART                                                          
positions_xyz_file str.xyz                                                      
     Hash =  -000007331127411900077080

--------------------------------------------------------------------------------
-------------------------------- END INPUT FILE --------------------------------
--------------------------------------------------------------------------------


 
 ESDF WARNING(1): "ispbeenergytolerance" (esdf_physical) has no units. Assume "hartree".
<<<<<<<<<<<<<<<<<<<<<<<<<<<<<<<<< Full system >>>>>>>>>>>>>>>>>>>>>>>>>>>>>>>>>>
<<<<<<<<<<<<<<<<<<<<<<<<< Pseudopotential information >>>>>>>>>>>>>>>>>>>>>>>>>>
File: /work/e89/e89/arihant/pseudo/Li.usp [ 2001 points up to Gmax=  52.9 (1/bohr)]
  Atomic number:  3;  ionic charge:  3.000000
    Shell 1: l = 0; rc = 1.19 bohr
    Shell 2: l = 0; rc = 1.25 bohr
File: /work/e89/e89/arihant/pseudo/C.usp [ 2001 points up to Gmax=  52.9 (1/bohr)]
  Atomic number:  6;  ionic charge:  4.000000
    Shell 1: l = 0; rc = 1.19 bohr
  Core charge supplied for Nonlinear Core Corrections
<<<<<<<<<<<<<<<<<<<<<<<<<<<<<<<<<<<<<<<<>>>>>>>>>>>>>>>>>>>>>>>>>>>>>>>>>>>>>>>>

-------------------------- Atom counting information ---------------------------
Symbol    Natoms    Nngwfs    Nprojs
  Li        48       240        96
  C        512      2048       512
.......   ......    ......    ......
Totals:    560      2288       608
--------------------------------------------------------------------------------

=============================== PSINC grid sizes ===============================
                      Simulation cell:  143 x  91 x 416
                              FFT-box:  117 x  91 x 117
                                  PPD:   11 x   7 x   1
Grid space d1=  0.451541543008a0 (KE cutoff=  37.25706Eh =1013.81618eV)
Grid space d2=  0.409667706512a0 (KE cutoff=  45.26271Eh =1231.66098eV)
Grid space d3=  0.454388192297a0 (KE cutoff=  36.79171Eh =1001.15326eV)
================================================================================
  
WARNING in cell_grid_distribute:
Average of less than one 23-slab per proc, so workload cannot be
equally balanced between procs.

********************* Fourier parallelisation information **********************
       Coarse grid (whole simulation cell) dimensions:    143    91   416
          Real-space ('12') slabs/proc (min max mean):      3     4     3
         Recip-space ('23') slabs/proc (min max mean):      0     1     0
********************************************************************************

********************* Fourier parallelisation information **********************
       Double grid (whole simulation cell) dimensions:    286   182   832
          Real-space ('12') slabs/proc (min max mean):      6     7     6
         Recip-space ('23') slabs/proc (min max mean):      1     2     1
********************************************************************************

********************* Fourier parallelisation information **********************
         Fine grid (whole simulation cell) dimensions:    288   184   832
          Real-space ('12') slabs/proc (min max mean):      6     7     6
         Recip-space ('23') slabs/proc (min max mean):      1     2     1
         Grid scale modified to satisfy multigrid solver grid constraints
         Grid scale values after modifification:         2.01  2.02  2.00
********************************************************************************
ONETEP fine grid is 288 x 184 x 832 gridpoints, 64.5704 x 37.2798 x 189.0255 bohr.
FD multigrid is     288 x 184 x 832 gridpoints, 64.5704 x 37.2798 x 189.0255 bohr.


Atom SCF Calculation for Li : Z (AE atom) =   3 : Z (PS atom) =   3
Config String:
Orbitals (num,occ):  3     2.00 1.00 0.00
Orbitals   (num,l):  3        0    0    1
Real-space Grid (nr,dr,rmax): 1343    0.0059612519    8.0000000000
Spherical Bessel Basis (nsws,lmax,cutoff):   37    1  220.4959463253
Confining potential (l,width,scale):  0    3.0000000000  100.0000000000
Confining potential (l,width,scale):  1    3.0000000000  100.0000000000
  1         -3.7050169094   -5.2301177776    2.5388568852   -0.9989538802
  2         -6.0510920273   -4.2679357854    3.2724001845   -1.3422946715
  3         -6.7975021434   -3.8722499620    3.6648237887   -1.5325279919
  4         -7.0147472228   -3.7673066376    3.7864613280   -1.5966989055
  5         -7.0774132854   -3.7446783348    3.8157063634   -1.6161454686
  6         -7.0951992563   -3.7420177453    3.8204515040   -1.6217593843
  7         -7.1001226024   -3.7430426481    3.8200527077   -1.6233132433
  8         -7.1014239576   -3.7441529610    3.8191274553   -1.6237164860
  9         -7.1017352306   -3.7448434699    3.8184905098   -1.6238077213
 10         -7.1017916056   -3.7452114113    3.8181373932   -1.6238209669
 11         -7.1017908912   -3.7453946820    3.8179578223   -1.6238181917
 12         -7.1017822190   -3.7454828903    3.8178702968   -1.6238141227
 13         -7.1017768840   -3.7455162316    3.8178369316   -1.6238119017
 14         -7.1017732849   -3.7455353767    3.8178176959   -1.6238104459
 15         -7.1017709700   -3.7455463461    3.8178066371   -1.6238095253
 16         -7.1017695244   -3.7455526225    3.8178002910   -1.6238089565
 17         -7.1017686390   -3.7455562110    3.8177966534   -1.6238086105
 18         -7.1017681040   -3.7455582619    3.8177945697   -1.6238084022
 19         -7.1017677838   -3.7455594341    3.8177933764   -1.6238082778
 20         -7.1017675934   -3.7455601042    3.8177926929   -1.6238082039
 21         -7.1017674808   -3.7455604874    3.8177923014   -1.6238081602
 22         -7.1017674145   -3.7455607066    3.8177920771   -1.6238081344
Atom SCF converged after  22 iterations to a total energy of     -7.10176741

Atom SCF Calculation for C  : Z (AE atom) =   6 : Z (PS atom) =   4
Config String:
Orbitals (num,occ):  2     2.00 2.00
Orbitals   (num,l):  2        0    1
Real-space Grid (nr,dr,rmax): 1343    0.0059612519    8.0000000000
Spherical Bessel Basis (nsws,lmax,cutoff):   37    1  220.4959463253
Confining potential (l,width,scale):  0    3.0000000000  100.0000000000
Confining potential (l,width,scale):  1    3.0000000000  100.0000000000
  1         -5.8177092822   -1.2555419264    4.5135233515   -1.7471920893
  2         -5.6032261188   -1.3440047989    4.4246587726   -1.7090653419
  3         -5.5936068668   -1.3561735374    4.4140765627   -1.7034094417
  4         -5.5958505747   -1.3587284552    4.4121342699   -1.7022848669
  5         -5.5969687665   -1.3601698222    4.4109982405   -1.7017057890
  6         -5.5975400979   -1.3609792837    4.4103423276   -1.7013975981
  7         -5.5978435204   -1.3614297943    4.4099696476   -1.7012314972
  8         -5.5980096069   -1.3616786122    4.4097605138   -1.7011416075
  9         -5.5981021113   -1.3618152853    4.4096441572   -1.7010929151
 10         -5.5981539939   -1.3618900852    4.4095797860   -1.7010665406
 11         -5.5981831160   -1.3619309228    4.4095443105   -1.7010522599
 12         -5.5981994243   -1.3619531807    4.4095248124   -1.7010445305
 13         -5.5982085235   -1.3619652972    4.4095141175   -1.7010403487
 14         -5.5982135796   -1.3619718867    4.4095082606   -1.7010380870
 15         -5.5982163780   -1.3619754676    4.4095050573   -1.7010368642
 16         -5.5982179208   -1.3619774123    4.4095033073   -1.7010362032
 17         -5.5982187685   -1.3619784678    4.4095023522   -1.7010358460
 18         -5.5982192328   -1.3619790404    4.4095018314   -1.7010356530
 19         -5.5982194864   -1.3619793509    4.4095015476   -1.7010355488
 20         -5.5982196245   -1.3619795192    4.4095013931   -1.7010354925
 21         -5.5982196995   -1.3619796104    4.4095013090   -1.7010354621
Atom SCF converged after  21 iterations to a total energy of     -5.59821970

BC: Task: GEOMETRYOPTIMIZATION
BC: +++++++++++++++ Summary of boundary conditions ++++++++++++++
BC: |       Component       |     Keyword     |   Periodicity   |
BC: |                       |                 |     X  Y  Z [1] |
BC: |-----------------------------------------------------------|
BC: | Ion-ion               | ion_ion_bc [2]  |     P  P  P     |
BC: | Local pseudopotential | pspot_bc [3]    |     P  P  P     |
BC: | Multigrid solver      | multigrid_bc    |     P  P  P     |
BC: | Smeared ions          | smeared_ion_bc  |     P  P  P     |
BC: | Van der Waals         | vdw_bc          |     P  P  P     |
BC: +++++++++++++++++++++++++++++++++++++++++++++++++++++++++++++
BC: P: Periodic, O: Open.
BC: [1] Not strictly along X, Y, Z but rather along lattice vectors A1, A2, A3.
BC: [2] Also affected by: pbc_correction_cutoff, cutoff_coulomb_type,
BC:     is_smeared_ion_rep, is_implicit_solvent, openbc_ion_ion.
BC: [3] Also affected by: is_smeared_ion_rep, is_implicit_solvent, openbc_pspot.

================================================================================
<<<<<<<<<<<<<<<< Resuming previous ONETEP Geometry Optimisation >>>>>>>>>>>>>>>>
================================================================================

 Geometry Optimisation: output file is "graphite.geom"
 
 Reading continuation file "graphite.continuation" ...done
 Geometry Optimisation: read_tightbox_ngwfs parameter over-ridden to TRUE
 Geometry Optimisation: read_hamiltonian parameter over-ridden to T
 
                           -------------------------------
                                     Cell Contents
                           -------------------------------
 
            xxxxxxxxxxxxxxxxxxxxxxxxxxxxxxxxxxxxxxxxxxxxxxxxxxxxxxxxxxxx
            x  Element    Atom      Absolute co-ordinates of atoms     x
            x            Number        x           y           z       x
            x----------------------------------------------------------x
            x    Li        1        0.046921   37.150778   16.448772   x
            x    Li        2        0.047041   27.828645   16.449488   x
            x    Li        3        0.046659   18.504625   16.448817   x
            x    Li        4        0.046283    9.187831   16.447722   x
            x    Li        5       32.405065   37.149819   16.449574   x
            x    Li        6       32.404722   27.828661   16.448361   x
            x    Li        7       32.405881   18.505754   16.449454   x
            x    Li        8       32.406342    9.187906   16.450130   x
            x    Li        9       16.233792    9.191234   16.435551   x
            x    Li       10       16.233889   18.499104   16.440420   x
            x    Li       11       16.234010   27.827937   16.448726   x
            x    Li       12       16.233742   37.154190   16.447034   x
            x    Li       13       48.480909   37.144102   16.441943   x
            x    Li       14       48.480817   27.831501   16.436887   x
            x    Li       15       48.480920   18.509184   16.448523   x
            x    Li       16       48.480878    9.187175   16.450140   x
            x    C        17       18.926699    9.195873   12.889543   x
            x    C        18       13.516520    9.195802   12.893498   x
            x    C        19       14.863578   11.539125   12.897040   x
            x    C        20       17.579620   11.539123   12.895183   x
            x    C        21       51.209071   27.835747   12.894624   x
            x    C        22       45.800575   27.835821   12.892774   x
            x    C        23       47.147070   30.179087   12.897023   x
            x    C        24       49.862845   30.178882   12.898330   x
            x    C        25       14.862956    6.851548   12.900452   x
            x    C        26       17.580119    6.851489   12.898566   x
            x    C        27       21.605342   13.855718   12.916173   x
            x    C        28       18.919269   13.855121   12.882195   x
            x    C        29       13.523535   13.855169   12.885881   x
            x    C        30       14.863189   16.170990   12.903905   x
            x    C        31       17.579715   16.170954   12.901971   x
            x    C        32       47.146584   25.491506   12.900167   x
            x    C        33       49.863275   25.491830   12.901341   x
            x    C        34       53.887075   32.495855   12.924515   x
            x    C        35       51.202124   32.495259   12.888021   x
            x    C        36       45.808006   32.495129   12.886479   x
            x    C        37       47.146737   34.810954   12.904228   x
            x    C        38       49.863113   34.811475   12.905361   x
            x    C        39       14.863176    2.219959   12.906523   x
            x    C        40       17.579800    2.220049   12.904689   x
            x    C        41       22.945166    2.203204   12.922504   x
            x    C        42        9.497602    2.203033   12.926217   x
            x    C        43       63.288243    2.219859   12.910026   x
            x    C        44        6.799517    2.202820   12.928618   x
            x    C        45       31.007190    2.219445   12.914988   x
            x    C        46        1.434238    2.219410   12.912992   x
            x    C        47       25.643223    2.202952   12.929026   x
            x    C        48       33.723557    2.219481   12.911195   x
            x    C        49       39.087104    2.202692   12.926947   x
            x    C        50       55.226181    2.202704   12.926433   x
            x    C        51       57.923806    2.203220   12.923501   x
            x    C        52       47.146785    2.219612   12.905875   x
            x    C        53       41.784105    2.202699   12.927578   x
            x    C        54       49.863083    2.219311   12.906775   x
            x    C        55       18.919062    4.535455   12.884678   x
            x    C        56       13.523759    4.535357   12.888410   x
            x    C        57       10.837564    4.536323   12.924013   x
            x    C        58       26.982522    4.536152   12.934034   x
            x    C        59        5.459821    4.536144   12.932401   x
            x    C        60       21.605081    4.536385   12.920042   x
            x    C        61       59.263183    4.536511   12.925430   x
            x    C        62        2.773810    4.535377   12.899612   x
            x    C        63       35.062455    4.535428   12.897156   x
            x    C        64       61.949160    4.535583   12.894480   x
            x    C        65       29.668066    4.535468   12.902703   x
            x    C        66       43.123258    4.536033   12.931862   x
            x    C        67       51.201431    4.535658   12.897027   x
            x    C        68       37.747607    4.536343   12.930946   x
            x    C        69       53.886998    4.536235   12.932847   x
            x    C        70       45.808428    4.535616   12.896202   x
            x    C        71       22.945400    6.868871   12.913096   x
            x    C        72       63.287787    6.851656   12.912099   x
            x    C        73        6.800338    6.868959   12.921712   x
            x    C        74       31.007021    6.852006   12.918119   x
            x    C        75       39.087492    6.868681   12.923975   x
            x    C        76       57.923277    6.868819   12.919831   x
            x    C        77        1.434482    6.851949   12.915078   x
            x    C        78        9.497442    6.868763   12.916805   x
            x    C        79       25.642449    6.869122   12.922274   x
            x    C        80       33.724031    6.851719   12.914352   x
            x    C        81       55.226665    6.869120   12.924338   x
            x    C        82       47.146542    6.851698   12.914024   x
            x    C        83       41.783737    6.868675   12.926023   x
            x    C        84       49.863102    6.852048   12.914858   x
            x    C        85       51.208965    9.195794   12.909380   x
            x    C        86       59.251533    9.195987   12.880602   x
            x    C        87        2.781068    9.195927   12.907908   x
            x    C        88       26.971528    9.196024   12.886733   x
            x    C        89       35.070497    9.195872   12.904760   x
            x    C        90       43.111260    9.195645   12.888006   x
            x    C        91       53.898477    9.195829   12.888021   x
            x    C        92       61.941384    9.196048   12.903033   x
            x    C        93        5.471056    9.195901   12.885281   x
            x    C        94       21.617155    9.195738   12.871077   x
            x    C        95       29.661019    9.195948   12.911762   x
            x    C        96       37.759791    9.195783   12.884478   x
            x    C        97       45.800530    9.195648   12.908410   x
            x    C        98       10.826001    9.195552   12.875215   x
            x    C        99       47.146777   11.539239   12.913389   x
            x    C       100       55.226401   11.522692   12.927514   x
            x    C       101       63.288202   11.539843   12.908523   x
            x    C       102       31.007158   11.539394   12.914216   x
            x    C       103       39.086768   11.522857   12.925949   x
            x    C       104       49.862782   11.538912   12.914206   x
            x    C       105       57.923935   11.523110   12.922131   x
            x    C       106        1.434342   11.539432   12.911352   x
            x    C       107       33.723684   11.539664   12.910669   x
            x    C       108       41.783909   11.522684   12.928997   x
            x    C       109        6.800002   11.522696   12.922561   x
            x    C       110       22.944891   11.522890   12.914212   x
            x    C       111       25.642785   11.522789   12.923066   x
            x    C       112        9.498008   11.522767   12.917912   x
            x    C       113       45.808426   13.855113   12.900800   x
            x    C       114       43.123095   13.856037   12.933564   x
            x    C       115       51.201446   13.855359   12.901504   x
            x    C       116       59.263311   13.856144   12.923906   x
            x    C       117       35.062153   13.855707   12.895598   x
            x    C       118       53.887103   13.856101   12.934574   x
            x    C       119       61.949557   13.855651   12.893279   x
            x    C       120       29.668135   13.855928   12.900466   x
            x    C       121       37.747510   13.856031   12.929116   x
            x    C       122        2.773964   13.855850   12.897448   x
            x    C       123       26.982232   13.856306   12.930159   x
            x    C       124        5.459998   13.856163   12.928705   x
            x    C       125       10.837365   13.855765   12.920228   x
            x    C       126       47.146584   16.171253   12.916135   x
            x    C       127       55.226904   16.188978   12.925317   x
            x    C       128       41.783459   16.188672   12.926531   x
            x    C       129       49.863159   16.171622   12.916972   x
            x    C       130       39.087196   16.188794   12.923576   x
            x    C       131       63.288241   16.171547   12.912351   x
            x    C       132       31.006943   16.171962   12.916779   x
            x    C       133       57.923644   16.188725   12.920239   x
            x    C       134       33.723639   16.171761   12.913350   x
            x    C       135        6.800015   16.188930   12.920593   x
            x    C       136        1.434518   16.171964   12.914858   x
            x    C       137       25.642755   16.189107   12.920834   x
            x    C       138       22.945353   16.188388   12.913329   x
            x    C       139        9.497550   16.188365   12.917126   x
            x    C       140       51.209164   18.515689   12.908517   x
            x    C       141       45.800265   18.515712   12.907179   x
            x    C       142       43.111026   18.515764   12.887869   x
            x    C       143       53.898637   18.515778   12.888450   x
            x    C       144       35.070127   18.515827   12.904704   x
            x    C       145       59.251993   18.516083   12.882796   x
            x    C       146       37.759337   18.516096   12.885280   x
            x    C       147       61.941804   18.515811   12.904815   x
            x    C       148       29.661098   18.515826   12.911318   x
            x    C       149        2.781066   18.515851   12.909057   x
            x    C       150       26.971325   18.515735   12.887837   x
            x    C       151        5.471128   18.515710   12.887307   x
            x    C       152       10.826054   18.515940   12.881365   x
            x    C       153       18.926804   18.515342   12.896068   x
            x    C       154       21.617036   18.516080   12.876839   x
            x    C       155       13.516541   18.515247   12.900303   x
            x    C       156       47.146685   20.859775   12.906600   x
            x    C       157       49.862941   20.859387   12.907723   x
            x    C       158       55.226295   20.842806   12.926877   x
            x    C       159       41.784119   20.842967   12.927030   x
            x    C       160       31.007188   20.859194   12.914263   x
            x    C       161       39.086810   20.842971   12.926217   x
            x    C       162       63.288371   20.859585   12.910851   x
            x    C       163       33.723555   20.859439   12.910529   x
            x    C       164       57.924010   20.843159   12.924047   x
            x    C       165        1.434284   20.859172   12.913766   x
            x    C       166        6.799692   20.842614   12.929165   x
            x    C       167       22.945083   20.842848   12.921961   x
            x    C       168       25.642905   20.842624   12.928475   x
            x    C       169       14.863342   20.859361   12.905812   x
            x    C       170        9.497714   20.842585   12.926634   x
            x    C       171       17.579718   20.859385   12.903584   x
            x    C       172       51.201856   23.175281   12.890106   x
            x    C       173       45.808218   23.175281   12.888613   x
            x    C       174       43.123405   23.176206   12.925764   x
            x    C       175       59.263629   23.176075   12.925168   x
            x    C       176       37.747275   23.176027   12.928298   x
            x    C       177       53.886833   23.176348   12.928289   x
            x    C       178       26.982160   23.176218   12.934565   x
            x    C       179       35.062151   23.175185   12.895518   x
            x    C       180        2.773821   23.175284   12.901056   x
            x    C       181       29.667904   23.175363   12.901577   x
            x    C       182       61.949324   23.175212   12.895595   x
            x    C       183       10.837564   23.175974   12.930154   x
            x    C       184       18.918634   23.175360   12.891200   x
            x    C       185        5.460015   23.176135   12.934921   x
            x    C       186       21.605069   23.175994   12.924885   x
            x    C       187       13.524206   23.175364   12.895687   x
            x    C       188       55.226581   25.508793   12.918117   x
            x    C       189       31.006702   25.491907   12.916055   x
            x    C       190       39.087630   25.508636   12.919585   x
            x    C       191       63.288030   25.491338   12.913847   x
            x    C       192        6.800155   25.508775   12.926847   x
            x    C       193       25.642451   25.508736   12.925512   x
            x    C       194       33.723739   25.491501   12.912324   x
            x    C       195       41.783914   25.508654   12.917838   x
            x    C       196       57.923183   25.508686   12.917976   x
            x    C       197        1.434684   25.491777   12.916882   x
            x    C       198       22.945526   25.508705   12.920674   x
            x    C       199       14.862980   25.491462   12.913881   x
            x    C       200        9.497316   25.508676   12.925758   x
            x    C       201       17.579919   25.491431   12.911644   x
            x    C       202       18.926558   27.835762   12.904668   x
            x    C       203       26.971028   27.835813   12.888245   x
            x    C       204       35.070290   27.835877   12.902860   x
            x    C       205       59.251890   27.835855   12.880186   x
            x    C       206        2.781072   27.835856   12.909838   x
            x    C       207       10.826187   27.835496   12.888207   x
            x    C       208       21.616714   27.835546   12.883117   x
            x    C       209       29.660936   27.835849   12.910104   x
            x    C       210       37.759476   27.835858   12.881349   x
            x    C       211       53.898890   27.835619   12.877370   x
            x    C       212       61.941490   27.835928   12.904781   x
            x    C       213        5.471322   27.835699   12.889217   x
            x    C       214       13.516659   27.835564   12.909136   x
            x    C       215       43.111146   27.835582   12.875770   x
            x    C       216       14.863317   30.179225   12.913170   x
            x    C       217       22.945180   30.162758   12.923808   x
            x    C       218       31.007023   30.179407   12.912671   x
            x    C       219       63.288137   30.180006   12.910074   x
            x    C       220        6.799434   30.162588   12.928965   x
            x    C       221       17.579609   30.179424   12.911010   x
            x    C       222       25.643014   30.162829   12.927796   x
            x    C       223       33.723594   30.179692   12.908772   x
            x    C       224        1.434325   30.179406   12.913203   x
            x    C       225        9.497535   30.162536   12.928670   x
            x    C       226       39.087229   30.162774   12.920601   x
            x    C       227       55.226123   30.162844   12.919345   x
            x    C       228       57.923695   30.162975   12.918754   x
            x    C       229       41.784517   30.162749   12.919113   x
            x    C       230       13.523984   32.495239   12.899960   x
            x    C       231       10.837450   32.495864   12.931601   x
            x    C       232       18.918768   32.495302   12.895717   x
            x    C       233       26.982272   32.496136   12.933075   x
            x    C       234        2.773563   32.495674   12.899638   x
            x    C       235       21.605234   32.496067   12.926582   x
            x    C       236       29.668207   32.495626   12.900429   x
            x    C       237       61.949311   32.495971   12.893405   x
            x    C       238        5.459838   32.496058   12.933147   x
            x    C       239       35.062324   32.495894   12.893631   x
            x    C       240       59.263459   32.496259   12.921326   x
            x    C       241       37.747472   32.495984   12.924734   x
            x    C       242       43.123310   32.495634   12.922095   x
            x    C       243       14.863140   34.811251   12.916002   x
            x    C       244       22.945728   34.828697   12.920756   x
            x    C       245        9.496983   34.828620   12.925308   x
            x    C       246       17.579889   34.811189   12.913828   x
            x    C       247        6.799888   34.828807   12.925575   x
            x    C       248       31.007135   34.812113   12.916700   x
            x    C       249       63.287959   34.811550   12.912650   x
            x    C       250       25.642704   34.828805   12.925055   x
            x    C       251        1.434325   34.811990   12.915975   x
            x    C       252       39.087152   34.828647   12.918086   x
            x    C       253       33.723705   34.811586   12.912569   x
            x    C       254       57.923570   34.828758   12.915783   x
            x    C       255       55.226550   34.828490   12.917526   x
            x    C       256       41.784020   34.828187   12.917721   x
            x    C       257       18.926863   37.155665   12.903546   x
            x    C       258       13.516340   37.155602   12.907633   x
            x    C       259       10.825955   37.155505   12.887185   x
            x    C       260       21.617075   37.155641   12.882794   x
            x    C       261        2.780771   37.155830   12.909668   x
            x    C       262       26.971536   37.155928   12.889790   x
            x    C       263        5.470826   37.155769   12.889278   x
            x    C       264       29.661353   37.155736   12.911998   x
            x    C       265       61.941464   37.155814   12.904190   x
            x    C       266       35.070527   37.155699   12.904310   x
            x    C       267       59.251929   37.155805   12.880748   x
            x    C       268       37.759487   37.155552   12.883359   x
            x    C       269       43.111167   37.155880   12.881691   x
            x    C       270       51.209349   37.155265   12.901151   x
            x    C       271       53.898773   37.155978   12.882499   x
            x    C       272       45.800334   37.155229   12.899775   x
            x    Li      273        0.057742   37.132861    9.392197   x
            x    Li      274        0.058046   27.812096    9.392538   x
            x    Li      275        0.058111   18.489899    9.392143   x
            x    Li      276        0.057988    9.170738    9.390798   x
            x    Li      277        8.140958   32.471859    9.388685   x
            x    Li      278        8.141129   23.154183    9.389063   x
            x    Li      279        8.140066   13.835707    9.381348   x
            x    Li      280        8.140753    4.511925    9.385234   x
            x    Li      281       16.226144    9.169248    9.377853   x
            x    Li      282       16.226025   18.490474    9.383374   x
            x    Li      283       16.226023   27.812164    9.392225   x
            x    Li      284       16.226152   37.133012    9.390372   x
            x    Li      285       24.311985   32.471896    9.386041   x
            x    Li      286       24.312165   23.154012    9.386189   x
            x    Li      287       24.313422   13.835619    9.379743   x
            x    Li      288       24.312657    4.511985    9.383733   x
            x    Li      289       32.382412   37.133202    9.392274   x
            x    Li      290       32.382138   27.811980    9.390727   x
            x    Li      291       32.381924   18.489526    9.392198   x
            x    Li      292       32.382162    9.170620    9.392660   x
            x    Li      293       40.440721   32.472104    9.380310   x
            x    Li      294       40.441551   23.153668    9.384097   x
            x    Li      295       40.442034   13.835332    9.387446   x
            x    Li      296       40.441952    4.512292    9.387785   x
            x    Li      297       48.489482   37.134016    9.383548   x
            x    Li      298       48.489574   27.810716    9.377751   x
            x    Li      299       48.489501   18.489600    9.390464   x
            x    Li      300       48.489236    9.170411    9.392173   x
            x    Li      301       56.549645   32.472166    9.379508   x
            x    Li      302       56.548767   23.153858    9.383438   x
            x    Li      303       56.548231   13.835464    9.385467   x
            x    Li      304       56.548241    4.512404    9.385518   x
            x    C       305       18.915233    9.193646    5.861198   x
            x    C       306       13.526072    9.193615    5.862723   x
            x    C       307       14.868808   11.529587    5.870017   x
            x    C       308       17.572378   11.529685    5.870084   x
            x    C       309       51.199688   27.833508    5.861138   x
            x    C       310       45.810954   27.833500    5.858678   x
            x    C       311       47.153886   30.169533    5.867622   x
            x    C       312       49.857123   30.169480    5.869795   x
            x    C       313       14.868614    6.857300    5.863867   x
            x    C       314       17.572599    6.857378    5.863965   x
            x    C       315       21.598919   13.853705    5.847529   x
            x    C       316       18.908194   13.853428    5.886217   x
            x    C       317       13.533016   13.853429    5.887002   x
            x    C       318       14.868719   16.177182    5.868645   x
            x    C       319       17.572378   16.177258    5.868695   x
            x    C       320       47.153686   25.497181    5.861724   x
            x    C       321       49.857179   25.497290    5.863921   x
            x    C       322       53.882805   32.493574    5.842638   x
            x    C       323       51.192633   32.493345    5.884579   x
            x    C       324       45.818265   32.493275    5.884467   x
            x    C       325       47.153822   34.816962    5.867182   x
            x    C       326       49.857172   34.817243    5.869292   x
            x    C       327       14.868862    2.209755    5.875981   x
            x    C       328       17.572268    2.209819    5.875999   x
            x    C       329       22.940952    2.197861    5.843917   x
            x    C       330        9.500021    2.197693    5.845411   x
            x    C       331       63.296001    2.209936    5.880044   x
            x    C       332        6.797117    2.197494    5.845557   x
            x    C       333       31.012136    2.209805    5.881782   x
            x    C       334        1.428650    2.209705    5.882923   x
            x    C       335       25.643770    2.197597    5.843918   x
            x    C       336       33.715097    2.209739    5.880483   x
            x    C       337       39.083231    2.197730    5.845395   x
            x    C       338       55.225191    2.197881    5.840196   x
            x    C       339       57.927828    2.198160    5.845205   x
            x    C       340       47.153809    2.209980    5.871795   x
            x    C       341       41.785686    2.197786    5.843637   x
            x    C       342       49.857022    2.209853    5.873565   x
            x    C       343       18.908242    4.533443    5.885971   x
            x    C       344       13.532998    4.533424    5.886772   x
            x    C       345       10.842406    4.533734    5.849126   x
            x    C       346       26.986322    4.533856    5.849975   x
            x    C       347        5.454857    4.533680    5.852996   x
            x    C       348       21.598958    4.533877    5.849620   x
            x    C       349       59.269555    4.534185    5.854546   x
            x    C       350        2.764333    4.533502    5.895287   x
            x    C       351       35.051004    4.533627    5.894380   x
            x    C       352       61.960079    4.533751    5.894769   x
            x    C       353       29.676616    4.533538    5.894916   x
            x    C       354       43.128119    4.533809    5.850745   x
            x    C       355       51.192211    4.533909    5.888807   x
            x    C       356       37.741364    4.533907    5.854768   x
            x    C       357       53.882681    4.534049    5.847816   x
            x    C       358       45.818465    4.533830    5.889732   x
            x    C       359       22.940964    6.869593    5.844274   x
            x    C       360       63.295672    6.857843    5.875272   x
            x    C       361        6.797611    6.869647    5.847152   x
            x    C       362       31.011983    6.857679    5.877962   x
            x    C       363       39.083479    6.869820    5.850648   x
            x    C       364       57.927599    6.869961    5.850030   x
            x    C       365        1.428954    6.857707    5.877862   x
            x    C       366        9.500097    6.869460    5.845625   x
            x    C       367       25.643422    6.869792    5.845702   x
            x    C       368       33.715530    6.857634    5.877134   x
            x    C       369       55.225220    6.870000    5.846720   x
            x    C       370       47.153733    6.857531    5.873910   x
            x    C       371       41.785603    6.869589    5.850216   x
            x    C       372       49.856997    6.857863    5.875635   x
            x    C       373       51.199230    9.193824    5.873863   x
            x    C       374       59.262886    9.193967    5.877208   x
            x    C       375        2.771373    9.193984    5.874227   x
            x    C       376       26.979227    9.193757    5.874872   x
            x    C       377       35.058114    9.193951    5.872108   x
            x    C       378       43.121138    9.193573    5.877882   x
            x    C       379       53.889481    9.193764    5.877312   x
            x    C       380       61.953153    9.194148    5.871114   x
            x    C       381        5.461840    9.193634    5.877143   x
            x    C       382       21.605575    9.193566    5.870906   x
            x    C       383       29.669541    9.193946    5.874736   x
            x    C       384       37.748174    9.193723    5.878804   x
            x    C       385       45.811261    9.193735    5.872125   x
            x    C       386       10.835651    9.193405    5.871223   x
            x    C       387       47.153852   11.529480    5.880358   x
            x    C       388       55.225061   11.517664    5.842794   x
            x    C       389       63.295921   11.530113    5.878658   x
            x    C       390       31.012027   11.529988    5.880821   x
            x    C       391       39.083288   11.517680    5.845790   x
            x    C       392       49.856776   11.529403    5.882065   x
            x    C       393       57.927754   11.517937    5.845432   x
            x    C       394        1.428858   11.529940    5.880896   x
            x    C       395       33.715255   11.529959    5.880447   x
            x    C       396       41.785658   11.517620    5.846087   x
            x    C       397        6.797546   11.517641    5.841042   x
            x    C       398       22.940782   11.517624    5.839059   x
            x    C       399       25.643581   11.517759    5.839441   x
            x    C       400        9.500354   11.517473    5.840556   x
            x    C       401       45.818422   13.853135    5.894253   x
            x    C       402       43.128081   13.853499    5.852101   x
            x    C       403       51.192212   13.853165    5.893653   x
            x    C       404       59.269738   13.853920    5.853546   x
            x    C       405       35.050825   13.853881    5.893317   x
            x    C       406       53.882602   13.853743    5.849609   x
            x    C       407       61.960301   13.853948    5.893752   x
            x    C       408       29.676524   13.854007    5.892485   x
            x    C       409       37.741188   13.853710    5.853475   x
            x    C       410        2.764533   13.854082    5.892961   x
            x    C       411       26.986178   13.854066    5.846004   x
            x    C       412        5.455081   13.853886    5.849174   x
            x    C       413       10.842556   13.853575    5.847175   x
            x    C       414       47.153629   16.177008    5.875730   x
            x    C       415       55.225410   16.189750    5.846253   x
            x    C       416       41.785414   16.189490    5.849190   x
            x    C       417       49.857132   16.177228    5.877624   x
            x    C       418       39.083222   16.189670    5.849305   x
            x    C       419       63.296098   16.177804    5.875438   x
            x    C       420       31.011843   16.177843    5.876455   x
            x    C       421       57.927821   16.189721    5.849430   x
            x    C       422       33.715109   16.177801    5.876092   x
            x    C       423        6.797554   16.189902    5.844834   x
            x    C       424        1.429088   16.177935    5.877622   x
            x    C       425       25.643534   16.190006    5.842963   x
            x    C       426       22.941004   16.189585    5.843008   x
            x    C       427        9.500133   16.189423    5.844578   x
            x    C       428       51.199428   18.513706    5.872391   x
            x    C       429       45.811127   18.513585    5.870387   x
            x    C       430       43.120853   18.513462    5.876120   x
            x    C       431       53.889705   18.513468    5.876202   x
            x    C       432       35.057694   18.513769    5.871958   x
            x    C       433       59.263358   18.513843    5.878163   x
            x    C       434       37.747631   18.513719    5.878643   x
            x    C       435       61.953656   18.513822    5.872638   x
            x    C       436       29.669614   18.513963    5.874516   x
            x    C       437        2.771435   18.513845    5.875482   x
            x    C       438       26.979215   18.513757    5.875444   x
            x    C       439        5.461845   18.513615    5.878654   x
            x    C       440       10.835649   18.513653    5.874146   x
            x    C       441       18.914968   18.513665    5.865574   x
            x    C       442       21.605666   18.513801    5.873393   x
            x    C       443       13.526330   18.513548    5.867288   x
            x    C       444       47.153885   20.849680    5.874397   x
            x    C       445       49.856892   20.849542    5.876360   x
            x    C       446       55.225289   20.837609    5.841386   x
            x    C       447       41.785556   20.837609    5.843550   x
            x    C       448       31.011887   20.849653    5.881718   x
            x    C       449       39.083023   20.837442    5.845199   x
            x    C       450       63.296277   20.849778    5.880973   x
            x    C       451       33.714879   20.849654    5.880884   x
            x    C       452       57.928050   20.837741    5.846082   x
            x    C       453        1.429041   20.849608    5.883633   x
            x    C       454        6.797431   20.837701    5.846448   x
            x    C       455       22.940895   20.837971    5.843744   x
            x    C       456       25.643622   20.837811    5.843914   x
            x    C       457       14.868782   20.849911    5.874763   x
            x    C       458        9.500278   20.837844    5.846161   x
            x    C       459       17.572404   20.849840    5.874595   x
            x    C       460       51.192614   23.173353    5.884372   x
            x    C       461       45.818126   23.173350    5.884306   x
            x    C       462       43.128056   23.173608    5.846021   x
            x    C       463       59.270141   23.173739    5.854043   x
            x    C       464       37.740868   23.173571    5.852605   x
            x    C       465       53.882807   23.173738    5.844742   x
            x    C       466       26.985850   23.173898    5.851073   x
            x    C       467       35.050557   23.173272    5.893418   x
            x    C       468        2.764815   23.173564    5.897056   x
            x    C       469       29.676167   23.173685    5.894853   x
            x    C       470       61.960476   23.173337    5.895641   x
            x    C       471       10.842625   23.173848    5.854296   x
            x    C       472       18.908005   23.173781    5.891751   x
            x    C       473        5.455364   23.173881    5.855459   x
            x    C       474       21.598772   23.173961    5.853548   x
            x    C       475       13.533225   23.173773    5.893344   x
            x    C       476       55.225341   25.509655    5.841067   x
            x    C       477       31.011528   25.497658    5.876670   x
            x    C       478       39.083418   25.509420    5.845916   x
            x    C       479       63.296084   25.497307    5.876674   x
            x    C       480        6.797579   25.509786    5.850854   x
            x    C       481       25.643306   25.509790    5.848008   x
            x    C       482       33.715052   25.497476    5.875311   x
            x    C       483       41.785586   25.509406    5.842943   x
            x    C       484       57.927622   25.509341    5.847143   x
            x    C       485        1.429378   25.497628    5.879867   x
            x    C       486       22.940876   25.509726    5.849371   x
            x    C       487       14.868700   25.497640    5.876737   x
            x    C       488        9.500165   25.509582    5.851992   x
            x    C       489       17.572411   25.497622    5.876409   x
            x    C       490       18.914832   27.833784    5.873708   x
            x    C       491       26.978972   27.833791    5.876252   x
            x    C       492       35.057834   27.833830    5.869299   x
            x    C       493       59.263151   27.833629    5.874814   x
            x    C       494        2.771596   27.833882    5.876279   x
            x    C       495       10.835747   27.833558    5.880449   x
            x    C       496       21.605395   27.833620    5.879106   x
            x    C       497       29.669307   27.833889    5.873630   x
            x    C       498       37.747967   27.833522    5.874304   x
            x    C       499       53.889765   27.833461    5.868214   x
            x    C       500       61.953499   27.833923    5.871651   x
            x    C       501        5.462101   27.833669    5.880401   x
            x    C       502       13.526487   27.833686    5.875846   x
            x    C       503       43.121029   27.833269    5.867450   x
            x    C       504       14.868890   30.169449    5.882894   x
            x    C       505       22.940781   30.157624    5.845264   x
            x    C       506       31.011765   30.169855    5.879941   x
            x    C       507       63.296213   30.170052    5.879599   x
            x    C       508        6.797412   30.157464    5.845839   x
            x    C       509       17.572158   30.169445    5.882578   x
            x    C       510       25.643509   30.157723    5.843189   x
            x    C       511       33.714904   30.169948    5.878362   x
            x    C       512        1.429083   30.169728    5.882949   x
            x    C       513        9.500198   30.157577    5.847731   x
            x    C       514       39.083345   30.157634    5.839882   x
            x    C       515       55.225271   30.157461    5.835747   x
            x    C       516       57.927773   30.157826    5.841005   x
            x    C       517       41.785849   30.157356    5.837807   x
            x    C       518       13.533148   32.493015    5.898001   x
            x    C       519       10.842476   32.493395    5.855785   x
            x    C       520       18.907959   32.493209    5.896276   x
            x    C       521       26.985991   32.493838    5.850049   x
            x    C       522        2.764473   32.493656    5.895964   x
            x    C       523       21.598734   32.493521    5.855088   x
            x    C       524       29.676318   32.493770    5.893935   x
            x    C       525       61.960326   32.493959    5.893489   x
            x    C       526        5.455132   32.493720    5.854091   x
            x    C       527       35.050724   32.493845    5.891259   x
            x    C       528       59.270020   32.493866    5.850273   x
            x    C       529       37.740966   32.493805    5.849024   x
            x    C       530       43.128099   32.493403    5.844067   x
            x    C       531       14.868500   34.817038    5.878905   x
            x    C       532       22.941111   34.829481    5.849716   x
            x    C       533        9.499974   34.829321    5.851979   x
            x    C       534       17.572531   34.817066    5.878630   x
            x    C       535        6.797309   34.829653    5.850526   x
            x    C       536       31.011866   34.817820    5.877568   x
            x    C       537       63.295948   34.817676    5.875964   x
            x    C       538       25.643609   34.829697    5.848294   x
            x    C       539        1.428961   34.817853    5.879453   x
            x    C       540       39.083328   34.829612    5.844761   x
            x    C       541       33.715140   34.817680    5.875751   x
            x    C       542       57.927750   34.829719    5.845475   x
            x    C       543       55.225371   34.829556    5.840692   x
            x    C       544       41.785636   34.829244    5.843034   x
            x    C       545       18.915021   37.153582    5.872290   x
            x    C       546       13.526240   37.153509    5.874151   x
            x    C       547       10.835496   37.153358    5.879277   x
            x    C       548       21.605641   37.153457    5.878549   x
            x    C       549        2.771165   37.153739    5.876571   x
            x    C       550       26.979525   37.153645    5.877978   x
            x    C       551        5.461489   37.153522    5.880919   x
            x    C       552       29.669663   37.153792    5.875681   x
            x    C       553       61.953390   37.153873    5.871889   x
            x    C       554       35.057939   37.153770    5.871061   x
            x    C       555       59.263203   37.153731    5.875953   x
            x    C       556       37.747819   37.153429    5.876537   x
            x    C       557       43.120920   37.153479    5.871225   x
            x    C       558       51.199537   37.153455    5.865781   x
            x    C       559       53.889881   37.153714    5.871136   x
            x    C       560       45.811305   37.153353    5.863758   x
            xxxxxxxxxxxxxxxxxxxxxxxxxxxxxxxxxxxxxxxxxxxxxxxxxxxxxxxxxxxx
 

LBFGS: continuation file name is "graphite.continuation"
 LBFGS: Restarting previous  geometry optimization.
 avg_mass=  21102.038348011974
 Enthalpy contributions:
                  total energy=  -3.03372588E+003 Eh
        diagonal pressure term=   0.00000000E+000 Eh
    off-diagonal pressure term=   0.00000000E+000 Eh
 LBFGS: finished iteration   0  with enthalpy= -3.033725883446E+003 Eh
  
 +-----------+-----------------+-----------------+------------+-----+ <-- LBFGS
 | Parameter |      value      |    tolerance    |    units   | OK? | <-- LBFGS
 +-----------+-----------------+-----------------+------------+-----+ <-- LBFGS
 |  dE/ion   |   0.000000E+000 |   1.000000E-006 |         Eh | No  | <-- LBFGS
 |  |F|max   |   4.563190E-003 |   2.000000E-003 |    Eh/Bohr | No  | <-- LBFGS
 |  |dR|max  |   0.000000E+000 |   5.000000E-003 |       Bohr | No  | <-- LBFGS
 +-----------+-----------------+-----------------+------------+-----+ <-- LBFGS
  

================================================================================
 Starting LBFGS iteration    1 ...
================================================================================
 Writing xyz coordinates to file "graphite.xyz" ... done

 Writing continuation file "graphite.continuation" ...done
 Backing up NGWFs to file "graphite.tightbox_ngwfs.bfgs_back" ... done
 Backing up Hamiltonian to file "graphite.ham.bfgs_back" ... done
  
 +------------+-------------+-------------+-----------------+ <-- min LBFGS
 |    Step    |   lambda    |   F.delta   |    enthalpy     | <-- min LBFGS
 +------------+-------------+-------------+-----------------+ <-- min LBFGS
 |  previous  |    0.000000 |    0.004154 |    -3033.725883 | <-- min LBFGS
 +------------+-------------+-------------+-----------------+ <-- min LBFGS
  

--------------------------------------------------------------------------------
 LBFGS: starting iteration   1 with trial guess (lambda=    1.000000)
--------------------------------------------------------------------------------
 
                           -------------------------------
                                     Cell Contents
                           -------------------------------
 
            xxxxxxxxxxxxxxxxxxxxxxxxxxxxxxxxxxxxxxxxxxxxxxxxxxxxxxxxxxxx
            x  Element    Atom      Absolute co-ordinates of atoms     x
            x            Number        x           y           z       x
            x----------------------------------------------------------x
            x    Li        1        0.046110   37.148995   16.486699   x
            x    Li        2        0.046216   27.827053   16.487316   x
            x    Li        3        0.046026   18.502747   16.486753   x
            x    Li        4        0.045611    9.186009   16.485540   x
            x    Li        5       32.406560   37.148012   16.487701   x
            x    Li        6       32.406186   27.827062   16.486317   x
            x    Li        7       32.407216   18.503918   16.487584   x
            x    Li        8       32.407695    9.186086   16.488168   x
            x    Li        9       16.233905    9.188756   16.472832   x
            x    Li       10       16.234024   18.497376   16.477732   x
            x    Li       11       16.234160   27.826035   16.486549   x
            x    Li       12       16.233852   37.152955   16.484388   x
            x    Li       13       48.479216   37.142412   16.479665   x
            x    Li       14       48.479064   27.829229   16.474557   x
            x    Li       15       48.479228   18.507895   16.486296   x
            x    Li       16       48.479207    9.185029   16.488358   x
            x    C        17       18.930141    9.195923   12.904195   x
            x    C        18       13.513307    9.195858   12.908873   x
            x    C        19       14.863523   11.539014   12.911240   x
            x    C        20       17.579769   11.538950   12.910039   x
            x    C        21       51.212327   27.835800   12.909859   x
            x    C        22       45.797179   27.835891   12.908286   x
            x    C        23       47.146699   30.178922   12.911340   x
            x    C        24       49.862872   30.178753   12.913576   x
            x    C        25       14.862978    6.851789   12.913083   x
            x    C        26       17.580172    6.851780   12.911863   x
            x    C        27       21.605001   13.855814   12.932971   x
            x    C        28       18.921610   13.854986   12.899317   x
            x    C        29       13.521234   13.855055   12.904282   x
            x    C        30       14.863164   16.170985   12.915719   x
            x    C        31       17.579840   16.170978   12.914375   x
            x    C        32       47.146329   25.491791   12.912956   x
            x    C        33       49.863198   25.492076   12.915057   x
            x    C        34       53.886445   32.496019   12.941974   x
            x    C        35       51.204420   32.495166   12.905870   x
            x    C        36       45.805402   32.494956   12.904903   x
            x    C        37       47.146349   34.810940   12.916179   x
            x    C        38       49.863180   34.811503   12.918270   x
            x    C        39       14.863279    2.219873   12.918722   x
            x    C        40       17.579816    2.219956   12.917495   x
            x    C        41       22.945526    2.203445   12.939969   x
            x    C        42        9.497564    2.203349   12.944786   x
            x    C        43       63.287930    2.219720   12.922648   x
            x    C        44        6.799813    2.202951   12.946531   x
            x    C        45       31.007192    2.219204   12.928060   x
            x    C        46        1.434118    2.219156   12.926646   x
            x    C        47       25.643311    2.203051   12.948049   x
            x    C        48       33.723858    2.219278   12.924704   x
            x    C        49       39.087401    2.202879   12.944444   x
            x    C        50       55.226145    2.202858   12.944321   x
            x    C        51       57.923394    2.203401   12.942022   x
            x    C        52       47.146496    2.219116   12.918577   x
            x    C        53       41.784041    2.202838   12.946133   x
            x    C        54       49.863085    2.218737   12.920415   x
            x    C        55       18.921499    4.535664   12.901143   x
            x    C        56       13.521386    4.535561   12.906130   x
            x    C        57       10.838031    4.536675   12.939670   x
            x    C        58       26.982801    4.536549   12.950131   x
            x    C        59        5.459747    4.536540   12.949242   x
            x    C        60       21.604748    4.536700   12.936365   x
            x    C        61       59.263224    4.536944   12.940940   x
            x    C        62        2.776125    4.535564   12.916561   x
            x    C        63       35.065188    4.535681   12.913789   x
            x    C        64       61.946332    4.535832   12.911960   x
            x    C        65       29.665637    4.535726   12.920801   x
            x    C        66       43.123393    4.536355   12.947417   x
            x    C        67       51.203929    4.535669   12.913913   x
            x    C        68       37.747602    4.536800   12.947460   x
            x    C        69       53.886727    4.536564   12.949768   x
            x    C        70       45.805587    4.535660   12.913696   x
            x    C        71       22.945780    6.869433   12.930353   x
            x    C        72       63.287375    6.852133   12.923586   x
            x    C        73        6.800666    6.869528   12.939063   x
            x    C        74       31.007237    6.852412   12.929823   x
            x    C        75       39.087724    6.869436   12.941347   x
            x    C        76       57.922971    6.869532   12.938172   x
            x    C        77        1.434168    6.852299   12.927479   x
            x    C        78        9.497419    6.869283   12.935195   x
            x    C        79       25.642553    6.869672   12.940710   x
            x    C        80       33.724385    6.852234   12.926607   x
            x    C        81       55.226822    6.869567   12.942054   x
            x    C        82       47.146323    6.852109   12.925540   x
            x    C        83       41.783549    6.869124   12.944445   x
            x    C        84       49.863006    6.852434   12.927296   x
            x    C        85       51.212335    9.195871   12.923343   x
            x    C        86       59.252523    9.196109   12.901545   x
            x    C        87        2.784060    9.195980   12.921452   x
            x    C        88       26.972837    9.196204   12.907723   x
            x    C        89       35.074117    9.195959   12.918125   x
            x    C        90       43.112295    9.195700   12.909162   x
            x    C        91       53.897483    9.195921   12.910652   x
            x    C        92       61.937849    9.196134   12.917055   x
            x    C        93        5.470110    9.196082   12.907333   x
            x    C        94       21.616177    9.195953   12.893445   x
            x    C        95       29.658098    9.195995   12.926064   x
            x    C        96       37.758824    9.195921   12.906649   x
            x    C        97       45.797052    9.195721   12.922705   x
            x    C        98       10.827229    9.195749   12.896613   x
            x    C        99       47.146488   11.538935   12.926327   x
            x    C       100       55.226540   11.522623   12.945923   x
            x    C       101       63.287832   11.539370   12.921104   x
            x    C       102       31.007366   11.538955   12.926959   x
            x    C       103       39.086960   11.522694   12.943950   x
            x    C       104       49.862714   11.538651   12.928035   x
            x    C       105       57.923644   11.522943   12.941095   x
            x    C       106        1.434005   11.539036   12.924838   x
            x    C       107       33.724050   11.539164   12.923991   x
            x    C       108       41.783711   11.522627   12.948173   x
            x    C       109        6.800432   11.522713   12.940422   x
            x    C       110       22.945313   11.522763   12.932194   x
            x    C       111       25.642749   11.522799   12.942023   x
            x    C       112        9.497971   11.522666   12.937000   x
            x    C       113       45.805733   13.855265   12.918659   x
            x    C       114       43.123362   13.856216   12.949598   x
            x    C       115       51.203874   13.855505   12.918734   x
            x    C       116       59.263488   13.856146   12.939605   x
            x    C       117       35.064830   13.855620   12.912177   x
            x    C       118       53.886792   13.856254   12.951917   x
            x    C       119       61.946776   13.855499   12.910755   x
            x    C       120       29.665815   13.855773   12.918335   x
            x    C       121       37.747368   13.856094   12.945805   x
            x    C       122        2.776094   13.855755   12.914187   x
            x    C       123       26.982593   13.856456   12.946156   x
            x    C       124        5.459819   13.856324   12.945481   x
            x    C       125       10.837872   13.855910   12.936403   x
            x    C       126       47.146398   16.171805   12.927574   x
            x    C       127       55.226852   16.189462   12.943117   x
            x    C       128       41.783479   16.189180   12.945033   x
            x    C       129       49.863114   16.172238   12.929287   x
            x    C       130       39.087498   16.189140   12.941015   x
            x    C       131       63.287941   16.171703   12.923769   x
            x    C       132       31.007071   16.172319   12.928539   x
            x    C       133       57.923256   16.189067   12.938704   x
            x    C       134       33.723847   16.172007   12.925640   x
            x    C       135        6.800410   16.189258   12.938047   x
            x    C       136        1.434275   16.172328   12.927201   x
            x    C       137       25.642750   16.189462   12.939355   x
            x    C       138       22.945783   16.188817   12.930666   x
            x    C       139        9.497478   16.188778   12.935548   x
            x    C       140       51.212194   18.515965   12.921924   x
            x    C       141       45.797052   18.516006   12.920884   x
            x    C       142       43.112271   18.516015   12.908544   x
            x    C       143       53.897359   18.515990   12.910640   x
            x    C       144       35.073520   18.515882   12.918174   x
            x    C       145       59.252910   18.516162   12.903534   x
            x    C       146       37.758504   18.516180   12.907264   x
            x    C       147       61.938532   18.515866   12.918763   x
            x    C       148       29.658089   18.515882   12.925796   x
            x    C       149        2.784135   18.515949   12.922724   x
            x    C       150       26.972608   18.515942   12.909031   x
            x    C       151        5.470208   18.515894   12.909480   x
            x    C       152       10.827219   18.515966   12.902208   x
            x    C       153       18.930052   18.515248   12.909340   x
            x    C       154       21.616216   18.516200   12.898636   x
            x    C       155       13.513542   18.515117   12.914391   x
            x    C       156       47.146458   20.859689   12.918945   x
            x    C       157       49.862839   20.859285   12.921038   x
            x    C       158       55.225974   20.843054   12.944667   x
            x    C       159       41.784384   20.843221   12.945479   x
            x    C       160       31.007195   20.859100   12.927397   x
            x    C       161       39.087303   20.843074   12.943763   x
            x    C       162       63.288116   20.859372   12.923470   x
            x    C       163       33.723806   20.859143   12.924024   x
            x    C       164       57.923466   20.843262   12.942642   x
            x    C       165        1.434165   20.859062   12.927483   x
            x    C       166        6.799801   20.842860   12.947109   x
            x    C       167       22.945741   20.843053   12.939580   x
            x    C       168       25.643141   20.842827   12.947501   x
            x    C       169       14.863387   20.858891   12.918411   x
            x    C       170        9.497396   20.842754   12.945362   x
            x    C       171       17.579756   20.858892   12.916822   x
            x    C       172       51.204225   23.175488   12.907273   x
            x    C       173       45.805570   23.175505   12.906359   x
            x    C       174       43.123967   23.176504   12.941387   x
            x    C       175       59.263609   23.176485   12.940441   x
            x    C       176       37.747239   23.176350   12.944618   x
[...]
 C   365 -- C   389       -0.07     -0.00      5.39688
 C   326 -- C   340       -0.07      0.00      5.39688
 C   417 -- C   444       -0.07      0.00      5.39690
 C   485 -- C   507       -0.07      0.00      5.39690
 C   333 -- C   541       -0.07     -0.00      5.39692
 C   414 -- C   445       -0.07      0.00      5.39694
 C   325 -- C   342       -0.07      0.00      5.39697
 C   334 -- C   537       -0.07     -0.00      5.39699
 C   424 -- C   450       -0.07     -0.00      5.39702
 C   487 -- C   509       -0.07     -0.00      5.39707
 C   489 -- C   504       -0.07      0.00      5.39708
 C   327 -- C   534       -0.07      0.00      5.39708
 C   319 -- C   457       -0.07      0.00      5.39720
 C   328 -- C   531       -0.07      0.00      5.39720
 C   336 -- C   536       -0.07     -0.00      5.39720
 C   318 -- C   459       -0.07      0.00      5.39727
 C   422 -- C   448       -0.07     -0.00      5.39733
 C   419 -- C   453       -0.07     -0.00      5.39737
 C   331 -- C   539       -0.07     -0.00      5.39744
 C   172 -- C   173       -0.07      0.00      5.40218
 C    35 -- C    36       -0.07      0.00      5.40234
 C    67 -- C    70       -0.07      0.00      5.40259
 C   113 -- C   115       -0.07      0.00      5.40262
 C   236 -- C   239       -0.07      0.00      5.40349
 C   117 -- C   120       -0.07      0.00      5.40354
 C   179 -- C   181       -0.07      0.00      5.40362
 C    63 -- C    65       -0.07      0.00      5.40374
 C   234 -- C   237       -0.07      0.00      5.40476
 C   119 -- C   122       -0.07      0.00      5.40484
 C   180 -- C   182       -0.07      0.00      5.40486
 C    62 -- C    64       -0.07      0.00      5.40509
 C    55 -- C    56       -0.07      0.00      5.40511
 C   184 -- C   187       -0.07      0.00      5.40521
 C    28 -- C    29       -0.07      0.00      5.40524
 C   230 -- C   232       -0.07      0.00      5.40543
 C    23 -- C    33       -0.06      0.00      5.41430
 C    24 -- C    32       -0.06     -0.00      5.41439
 C    84 -- C    99       -0.06      0.00      5.41471
 C    74 -- C   107       -0.06      0.00      5.41472
 C    82 -- C   104       -0.06     -0.00      5.41479
 C   126 -- C   157       -0.06      0.00      5.41481
 C   194 -- C   218       -0.06      0.00      5.41481
 C   129 -- C   156       -0.06      0.00      5.41481
 C    80 -- C   102       -0.06      0.00      5.41484
 C    38 -- C    52       -0.06      0.00      5.41485
 C   189 -- C   223       -0.06      0.00      5.41487
 C    19 -- C    26       -0.06      0.00      5.41491
 C    20 -- C    25       -0.06     -0.00      5.41494
 C    37 -- C    54       -0.06      0.00      5.41495
 C   132 -- C   163       -0.06      0.00      5.41498
 C    77 -- C   101       -0.06      0.00      5.41504
 C    45 -- C   253       -0.06      0.00      5.41508
 C   191 -- C   224       -0.06      0.00      5.41509
 C    72 -- C   106       -0.06      0.00      5.41509
 C    48 -- C   248       -0.06      0.00      5.41513
 C   197 -- C   219       -0.06      0.00      5.41522
 C   134 -- C   160       -0.06      0.00      5.41525
 C   136 -- C   162       -0.06      0.00      5.41527
 C    46 -- C   249       -0.06      0.00      5.41529
 C    39 -- C   246       -0.06      0.00      5.41542
 C    40 -- C   243       -0.06      0.00      5.41543
 C   201 -- C   216       -0.06      0.00      5.41548
 C   199 -- C   221       -0.06     -0.00      5.41549
 C    43 -- C   251       -0.06      0.00      5.41549
 C    31 -- C   169       -0.06      0.00      5.41553
 C   131 -- C   165       -0.06      0.00      5.41553
 C    30 -- C   171       -0.06      0.00      5.41554
 C    21 -- C    22       -0.06     -0.00      5.41895
 C   140 -- C   141       -0.06     -0.00      5.41912
 C   270 -- C   272       -0.06     -0.00      5.41921
 C    85 -- C    97       -0.06     -0.00      5.41967
 C   144 -- C   148       -0.06     -0.00      5.42006
 C   264 -- C   266       -0.06     -0.00      5.42012
 C    89 -- C    95       -0.06     -0.00      5.42015
 C   204 -- C   209       -0.06     -0.00      5.42020
 C   147 -- C   149       -0.06     -0.00      5.42116
 C   261 -- C   265       -0.06     -0.00      5.42119
 C   206 -- C   212       -0.06     -0.00      5.42120
 C    87 -- C    92       -0.06     -0.00      5.42140
 C    17 -- C    18       -0.06     -0.00      5.42157
 C   153 -- C   155       -0.06     -0.00      5.42161
 C   257 -- C   258       -0.06     -0.00      5.42170
 C   202 -- C   214       -0.06     -0.00      5.42195
=============================================================


============== Orbital energy and occupancy information for spin 1 =============

      Total number of orbitals:    2288
        Occupancy sum (kernel):    1088.221680881
   Occupancy sum (eigenvalues):    1088.221680881
                 HOMO-LUMO gap:       0.000022418 Eh
                 Mid-gap level:      -0.161052367 Eh

                        Orbital | Energy (Eh) | Occupancy
                            1    -1.959326865   1.0000000
                        .......   ...........   .........
                         1080    -0.182858894   0.9958805
                         1081    -0.174644299   0.9625426
                         1082    -0.174642834   0.9625271
                         1083    -0.161975008   0.4498977
                         1084    -0.161973648   0.4498040
                         1085    -0.161965707   0.4492780
                         1086    -0.161964440   0.4491946
                         1087    -0.161168935   0.3965413
                         1088    -0.161163586   0.3961991
                         1089    -0.161063576   0.3899901
                        ....... -- gap at 0K -- .........
                         1090    -0.161041158   0.3887132
                         1091    -0.160891941   0.3787183
                         1092    -0.160889741   0.3785897
                         1093    -0.159342502   0.2856987
                         1094    -0.159333814   0.2852032
                         1095    -0.159018866   0.2687691
                         1096    -0.159005482   0.2680048
                         1097    -0.158676563   0.2489671
                         1098    -0.157487747   0.1951012
                         1099    -0.157453437   0.1936490
                        .......   ...........   .........
                         2288     0.718240576   0.0000000

================================================================================

============== Orbital energy and occupancy information for spin 2 =============

      Total number of orbitals:    2288
        Occupancy sum (kernel):    1088.221680868
   Occupancy sum (eigenvalues):    1088.221680868
                 HOMO-LUMO gap:       0.000100011 Eh
                 Mid-gap level:      -0.161113581 Eh

                        Orbital | Energy (Eh) | Occupancy
                            1    -1.959326865   1.0000000
                        .......   ...........   .........
                         1079    -0.183899690   0.9968819
                         1080    -0.182858894   0.9958805
                         1081    -0.174644299   0.9625426
                         1082    -0.174642834   0.9625271
                         1083    -0.161975007   0.4498977
                         1084    -0.161973649   0.4498040
                         1085    -0.161965706   0.4492780
                         1086    -0.161964439   0.4491946
                         1087    -0.161168935   0.3965413
                         1088    -0.161163586   0.3961991
                        ....... -- gap at 0K -- .........
                         1089    -0.161063575   0.3899901
                         1090    -0.161041158   0.3887132
                         1091    -0.160891940   0.3787183
                         1092    -0.160889741   0.3785896
                         1093    -0.159342502   0.2856987
                         1094    -0.159333814   0.2852032
                         1095    -0.159018866   0.2687691
                         1096    -0.159005482   0.2680048
                         1097    -0.158676563   0.2489671
                         1098    -0.157487748   0.1951012
                        .......   ...........   .........
                         2288     0.718240576   0.0000000

================================================================================

===================== Writing canonical molecular orbitals =====================
    Spin 1
| Orbital  Energy (eV)  Norm     |
| HOMO-5   -4.40752724  1.000000 | 
| HOMO-4   -4.40731113  1.000000 | 
| HOMO-3   -4.40727666  1.000000 | 
| HOMO-2   -4.38562989  1.000000 | 
| HOMO-1   -4.38548433  1.000000 | 
| HOMO     -4.38276290  1.000000 | 
| LUMO     -4.38215289  1.000000 | 
| LUMO+1   -4.37809248  1.000000 | 
| LUMO+2   -4.37803263  1.000000 | 
| LUMO+3   -4.33593010  1.000000 | 
| LUMO+4   -4.33569369  1.000000 | 
| LUMO+5   -4.32712351  1.000000 | 
================================================================================

===================== Writing canonical molecular orbitals =====================
    Spin 2
| Orbital  Energy (eV)  Norm     |
| HOMO-5   -4.40756422  1.000000 | 
| HOMO-4   -4.40752725  1.000000 | 
| HOMO-3   -4.40731113  1.000000 | 
| HOMO-2   -4.40727666  1.000000 | 
| HOMO-1   -4.38562988  1.000000 | 
| HOMO     -4.38548433  1.000000 | 
| LUMO     -4.38276290  1.000000 | 
| LUMO+1   -4.38215289  1.000000 | 
| LUMO+2   -4.37809247  1.000000 | 
| LUMO+3   -4.37803262  1.000000 | 
| LUMO+4   -4.33593011  1.000000 | 
| LUMO+5   -4.33569369  1.000000 | 
================================================================================
 
=============== Density of States (DOS) calculation for UP spin ================
Writing "graphite_UP_DOS.txt" ... done
================================================================================
 
============== Density of States (DOS) calculation for DOWN spin ===============
Writing "graphite_DN_DOS.txt" ... done
================================================================================
 
Writing bands to file "graphite.val_bands" ... done

IS: Calculating electrolyte contribution to the atomic forces ...
================================================================================
 
***********************************************************
********** Summary of Forces (values in Eh/a) *************
*                                                         *
* ---------------------- Minimum ------------------------ *
* Atom:       441, |F|min =    0.00002766                 *
* Components:     Fx|min       Fy|min       Fz|min        *
*              -0.00002412   0.00000712  -0.00001151      *
*                                                         *
* ---------------------- Maximum ------------------------ *
* Atom:       146, |F|max =    0.00085513                 *
* Components:     Fx|max       Fy|max       Fz|max        *
*              -0.00059608  -0.00006849  -0.00060930      *
*                                                         *
* ---------------- Root Mean Square Force --------------- *
*                  |F|rms =    0.00039597                 *
* Components:     Fx|rms       Fy|rms       Fz|rms        *
*               0.00020535   0.00015341   0.00030182      *
***********************************************************
 

                                                      hartree           kcal/mol
IS: NB: Energy of pure electrolyte:         -0.08594619296740         -53.932049

------------------------------ TIMING INFORMATION ------------------------------
AVERAGE TIME:    8268.856s on    128 proc(s)                                    
TOTAL TIME:      8268.862s on    128 proc(s)                                    
================= AVERAGE TIMINGS FROM ALL PROCS (CUMULATIVE) ==================
|| TAG                                    #calls    cpu time   %total  Gflops ||
|| linalg_invert_sym_matrix             :     4        0.00s   0.000%  ------ || (1 procs only)
|| density_fftbox_interp_mult_imbal     : 11040        0.00s   0.000%  ------ ||
|| sparse_set_to_garbage                :   136        0.01s   0.000%  ------ ||
|| onetep.F90 main loop imbalance       :     1        0.01s   0.000%  ------ ||
|| onetep.F90 final imbalance           :     1        0.03s   0.000%  ------ ||
|| ewald_calculate_forces_realspace     :     6        0.03s   0.000%  ------ ||
|| vdwcorrection_calculate_energy       :     6        0.03s   0.000%  ------ ||
|| vdwcorrection_calculate_forces       :     6        0.04s   0.000%  ------ ||
|| basis_extract_function_from_box      :  1036        0.08s   0.001%  ------ ||
|| pseudopotentials_core_density        :     6        0.11s   0.001%  ------ ||
|| pseudopotentials_local_on_grid       :     6        0.11s   0.001%  ------ ||
|| sparse_spam3toblacs_real_fast_imbal  :  1020        0.17s   0.002%  ------ ||
|| parallel_prepare_fd_halos_alloc      : 31068        0.17s   0.002%  ------ ||
|| pseudopotentials_nonlocal_mat        :    20        0.20s   0.002%  ------ ||
|| restart_hamiltonian_read             :     6        0.25s   0.003%  ------ ||
|| parallel_prepare_fd_halos_request    : 31068        0.29s   0.004%  ------ ||
|| sparse_blacstospam3_real_fast_imbal  :  1000        0.34s   0.004%  ------ ||
|| restart_hamiltonian_write            :    13        0.66s   0.008%  ------ ||
|| pseudo_make_structure_factor         :     6        0.78s   0.009%  ------ ||
|| sparse_spam3toblacs_real_fast_B2     : 130.6k       0.85s   0.010%  ------ ||
|| smeared_ion_generate_potential_PBC   :     6        1.35s   0.016%  ------ ||
|| parallel_prepare_fd_halos_satisfy    : 31068        1.43s   0.017%  ------ ||
|| sparse_init                          :     6        1.98s   0.024%  ------ ||
|| energy_and_force_init_cell           :     1        2.26s   0.027%  ------ ||
|| ngwf_gradient_coeffs                 :    13        2.47s   0.030%  ------ ||
|| restart_kernel_write                 :    19        2.89s   0.035%  ------ ||
|| pseudo_local_calculate_forces        :     6        3.08s   0.037%  ------ ||
|| integrals_grad_spam3                 :     6        3.73s   0.045%  ------ ||
|| nonsc_forces_ngwfs_calc              :     6        3.73s   0.045%  ------ ||
|| ewald_calculate_energy               :     6        3.81s   0.046%  ------ ||
|| density_init_guess_real              :     6        3.98s   0.048%  ------ ||
|| eigenstates_calculate                :     1        4.30s   0.052%  ------ ||
|| sparse_embed_hotelling_invert_embed  :    20        4.48s   0.054%  ------ ||
|| pseudo_nlcc_calculate_forces         :     6        4.61s   0.056%  ------ ||
|| projectors_func_grad_ovlp_box_spam3  :    18        5.72s   0.069%  ------ ||
|| fourier_filter_cell                  :   218        5.96s   0.072% 203.805 ||
|| projectors_func_ovlp_box_spam3       :    20        6.02s   0.073%  ------ ||
|| pseudo_nl_calculate_forces           :     6        6.50s   0.079%  ------ ||
|| sparse_trace                         :  3808        7.43s   0.090%  ------ ||
|| projectors_init_fftbox_recip         :    90        8.73s   0.106%  ------ ||
|| restart_ngwfs_tightbox_input         :     6        8.74s   0.106%  ------ ||
|| fourier_apply_box_pair               :  1166       10.74s   0.130%  1.754k ||
|| boltzmann_init_steric_pot            :     6       10.91s   0.132%  ------ ||
|| ewald_calculate_forces_recipspace    :     6       11.96s   0.145%  ------ ||
|| ewald_calculate_forces               :     6       12.05s   0.146%  ------ ||
|| parallel_prepare_fd_halos_comms_imbal: 31068       12.20s   0.148%  ------ ||
|| basis_copy_function_to_box           : 14335       12.38s   0.150%  ------ ||
|| parallel_prepare_fd_halos_clear      : 31068       12.54s   0.152%  ------ ||
|| function_ops_brappd_ketppd_spam3     :    34       13.12s   0.159%  ------ ||
|| integrals_kinetic_spam3              :    20       20.61s   0.249%  ------ ||
|| parallel_prepare_fd_halos_comms_wait : 31068       20.97s   0.254%  ------ ||
|| fourier_interpolate_cell             :   552       26.09s   0.316% 117.890 ||
|| properties_calculate                 :     1       29.27s   0.354%  ------ ||
|| sparse_product                       :  2295       31.13s   0.377%  ------ ||
|| sparse_spam3toblacs_real_fast_B1     : 130.6k      36.64s   0.443%  ------ ||
|| fourier_apply_cell_backward          :  2310       36.83s   0.445% 176.377 ||
|| projectors_gradient_batch            :    52       39.10s   0.473%  ------ ||
|| sparse_spam3toblacs_real_fast        :  1020       39.46s   0.477%  ------ ||
|| basis_dot_function_with_box          : 2.495M      46.11s   0.558%  ------ ||
|| parallel_prepare_fd_halos            : 31068       47.78s   0.578%  ------ ||
|| cell_grid_extract_box_real           :  4360       55.06s   0.666%  ------ ||
|| restart_ngwfs_tightbox_output        :     8       71.43s   0.864%  ------ ||
|| sparse_blacstospam3_real_fast        :  1000       71.77s   0.868%  ------ ||
|| xc_energy_potential                  :   282       83.18s   1.006%  ------ ||
|| fourier_apply_cell_forward           :  2286      118.88s   1.438%  54.075 ||
|| cell_grid_deposit_box_real           : 11580      121.76s   1.473%  ------ ||
|| dense_eigensolve                     :   488      144.42s   1.747%  ------ ||
|| finite_difference_derivative         : 31068      147.71s   1.786%  ------ ||
|| basis_add_function_to_box            : 8.000M     154.77s   1.872%  ------ ||
|| ngwf_gradient_build_batch            :    52      168.30s   2.035%  ------ ||
|| edft_diag_ngwf_ham                   :   486      180.96s   2.189%  ------ ||
|| integrals_locpot_mat_els_batch       :   384      192.03s   2.322%  ------ ||
|| hamiltonian_energy_components        :     6      206.44s   2.497%  ------ ||
|| ngwf_gradient_batch                  :    52      269.82s   3.263%  ------ ||
|| ngwf_gradient_lnv                    :    13      280.22s   3.389%  ------ ||
|| edft_apply_smearing_operator         :   243      283.23s   3.425%  ------ ||
|| implicit_solvent_boltzmann_forces    :     6      296.78s   3.589%  ------ ||
|| density_batch_row_sums               :  1104      410.78s   4.968%  ------ ||
|| density_fftbox_deposit_to_cell       : 11040      467.87s   5.658%  ------ ||
|| smeared_ion_force_correction         :    12      584.60s   7.070%  ------ ||
|| implicit_solvent_soft_sphere_forces  :     6      619.38s   7.490%  ------ ||
|| potential_apply_to_ngwf_batch        :   384      724.14s   8.757%  ------ ||
|| integrals_locpot_dbl_grid            :   192      917.27s  11.093%  ------ ||
|| fourier_apply_box                    : 30711     1018.00s  12.311%  2.343k ||
|| dl_mg_solver_calls                   :   276     1107.00s  13.388%  ------ ||
|| multigrid_calculate_hartree          :   276     1137.06s  13.751%  ------ ||
|| density_fftbox_interpolate_multiply  : 11040     1213.95s  14.681%  ------ ||
|| forces_calculate                     :     6     1590.35s  19.233%  ------ ||
|| density_batch_interp_deposit         :  1104     2222.54s  26.878%  ------ ||
|| density_on_dbl_grid                  :   552     2789.69s  33.737%  ------ ||
|| hamiltonian_lhxc_calculate           :   264     3958.34s  47.870%  ------ ||
|| edft_calculate                       :    13     4881.23s  59.031%  ------ ||
|| ngwf_cg_optimise                     :     6     5591.46s  67.621%  ------ ||
|| energy_and_forces                    :     6     8229.55s  99.525%  ------ ||
|| total_time                           :     1     8268.86s 100.000%  ------ ||
================================================================================
Overhead of generating timer report: 
- 0 ms averaging over threads,
- 14 ms ensuring consistency across MPI ranks,
- 34 ms printing in order.

Job completed: 01-11-2023 01:40 (+0000)

