1183      
Geometry optimisation iteration:    22 | Lattice="34.1692 0.0000 0.0000  0.0000 39.4552 0.0000  0.0000 0.0000 100.0000"
Li    2.167312    1.175194    4.738268
Li    2.168066    6.099132    4.728149
Li    2.168873   11.022639    4.756042
Li    2.166852   15.972622    4.821033
Li    2.164253   20.882749    4.836320
Li    2.168955   25.825992    4.808709
Li    2.170540   30.770981    4.779341
Li    2.167566   35.677860    4.758948
Li   10.724365    1.178644    4.773148
Li   10.724267    6.091677    4.794608
Li   10.706268   11.011923    4.818541
Li   10.702286   15.947943    4.774912
Li   10.721821   20.887637    4.742908
Li   10.716118   25.850221    4.788853
Li   10.723015   30.773194    4.846828
Li   10.724836   35.675415    4.818982
Li   19.265466    1.178227    4.818800
Li   19.266911    6.089245    4.853295
Li   19.282174   10.991780    4.821638
Li   19.281351   15.983114    4.682603
Li   19.296447   20.895134    4.636381
Li   19.266208   25.819959    4.728723
Li   19.272283   30.789463    4.831010
Li   19.266948   35.675612    4.842469
Li   27.794144    1.176416    4.754823
Li   27.792560    6.098355    4.773886
Li   27.796649   11.020910    4.824068
Li   27.813679   15.965165    4.814535
Li   27.817643   20.887541    4.774875
Li   27.800604   25.832209    4.779890
Li   27.790536   30.765500    4.808466
Li   27.794698   35.679448    4.784635
Li    6.446967    3.622950    4.741919
Li    6.445699    8.574972    4.760446
Li    6.438745   13.480922    4.804290
Li    6.427611   18.419268    4.809116
Li    6.428693   23.384856    4.800697
Li    6.445479   28.287242    4.818571
Li    6.446111   33.226939    4.805847
Li    6.444769   38.164676    4.762671
Li   14.998681    3.624624    4.821479
Li   14.992888    8.538232    4.843579
Li   15.009219   13.484696    4.790748
Li   14.986260   18.430806    4.698947
Li   15.000878   23.388084    4.695122
Li   14.990089   28.306086    4.808870
Li   15.000033   33.228981    4.855841
Li   14.999987   38.163960    4.817403
Li   23.527817    3.624547    4.802340
Li   23.536968    8.568184    4.846920
Li   23.560111   13.471392    4.806467
Li   23.549300   18.431450    4.715291
Li   23.552166   23.387226    4.703642
Li   23.550073   28.295033    4.787379
Li   23.529403   33.226330    4.836649
Li   23.528793   38.164075    4.799462
Li   32.062055    3.622381    4.733295
Li   32.062722    8.575661    4.749871
Li   32.064019   13.490223    4.808189
Li   32.067134   18.423609    4.840803
Li   32.064726   23.372022    4.819412
Li   32.062565   28.280678    4.790689
Li   32.065552   33.229584    4.769336
Li   32.063340   38.164532    4.748590
C    17.829235   20.893104    2.773456
C    18.543010   22.129607    2.772645
C    18.542938   19.656632    2.773236
C    20.685377   20.893223    2.769293
C    19.970893   22.129810    2.770125
C    19.971029   19.656141    2.771916
C    16.408577   20.893360    2.797557
C    22.105877   20.893336    2.804116
C    17.832861   23.359591    2.803461
C    20.681107   23.360073    2.804562
C    17.832487   18.425987    2.801177
C    20.681393   18.425806    2.805108
C    15.698132   22.123812    2.797747
C    16.412020   23.359949    2.799624
C    15.697940   19.662579    2.797355
C    22.815964   22.123999    2.805775
C    22.102076   23.359935    2.805182
C    16.411558   18.425913    2.800244
C    22.816015   19.662374    2.811724
C    22.102394   18.425811    2.814482
C    18.543064   24.590488    2.815339
C    19.970405   24.590417    2.814303
C    18.542989   17.194896    2.801492
C    19.970976   17.195004    2.801813
C    14.271199   22.123839    2.815076
C    14.270751   19.662617    2.812359
C    24.242815   22.123636    2.821071
C    22.815267   24.596422    2.819666
C    15.698528   24.596746    2.820375
C    13.560951   20.893284    2.833583
C    24.243084   19.662748    2.828738
C    15.698168   17.189476    2.824343
C    13.557243   23.359931    2.831281
C    20.684015   25.826848    2.837186
C    22.815630   17.189424    2.838762
C    24.242852   24.596222    2.826346
C    24.956770   23.359806    2.826516
C    24.953302   20.893341    2.846091
C    17.829579   25.826695    2.841319
C    14.270864   24.596683    2.834824
C    22.104928   25.826520    2.851432
C     0.744792    6.097876    2.829699
C     1.458844    7.333636    2.830697
C     2.885633    7.333433    2.832252
C     1.458922    4.862260    2.830236
C    16.408879   25.826802    2.859119
C    33.493734    6.098003    2.844696
C     2.885645    4.862226    2.831564
C     3.599626    6.097820    2.832491
C    13.557088   18.426173    2.832685
C    20.685072   15.958313    2.828952
C    17.829450   15.958584    2.828264
C     0.748032    8.563917    2.847963
C    32.783209    4.867747    2.835254
C     0.748147    3.632133    2.844305
C    33.497178    3.632043    2.834742
C    32.782829    7.328417    2.841416
C     3.596452    8.563847    2.850662
C     5.019993    6.097757    2.850314
C     3.596402    3.632097    2.846437
C    33.496741    8.564021    2.842699
C    14.270861   17.189424    2.839798
C    31.356668    4.867794    2.839418
C     5.016680    3.631854    2.839504
C     1.458923    9.794486    2.844360
C     1.459055    2.401624    2.837128
C     5.730553    4.867601    2.841546
C    12.140290   20.893015    2.845294
C     2.885573    9.794370    2.845524
C     2.885618    2.401564    2.838391
C    32.783417    2.395899    2.837636
C    16.409156   15.959145    2.855175
C    30.642747    3.632023    2.840255
C     5.016884    8.563727    2.848857
C     5.730812    7.328060    2.849216
C    31.356863    2.395786    2.838888
C    12.137266   23.359478    2.868574
C    22.105352   15.958976    2.864757
C    24.956868   18.426152    2.847907
C     0.745060    1.165427    2.841672
C    30.645896    6.098012    2.859241
C     5.730408    2.395804    2.843939
C    31.356504    7.328220    2.849001
C    33.494195    1.165449    2.852760
C     7.157122    4.867589    2.849345
C     3.599512    1.165357    2.844692
C    26.376709   23.359084    2.863522
C    24.952769   25.826599    2.865146
C    24.242829   17.189577    2.854846
C     5.019732    1.165278    2.858689
C     7.157221    2.395605    2.848410
C    30.646126    1.165476    2.857148
C    29.222565    3.632152    2.860831
C    11.426827   22.129157    2.859102
C     0.745057   11.030371    2.856796
C     1.459052   39.384606    2.847838
C     7.871006    3.631752    2.851357
C    32.783170    9.800109    2.854503
C    32.783532   39.390285    2.847997
C     2.885566   39.384543    2.849801
C    19.970440   27.062960    2.861513
C     3.599341   11.030288    2.857966
C    26.373773   20.893007    2.861244
C    18.543203   27.062902    2.865842
C    31.356915   39.390375    2.849603
C     7.157160    7.327758    2.860465
C    28.512128    2.401589    2.853902
C    22.815173   27.057228    2.871684
C    29.225872    1.165446    2.853261
C     0.748397   38.154539    2.864462
C     5.730440    9.799765    2.860471
C     7.867667    6.097712    2.872404
C    33.497527   38.154613    2.853386
C    12.136991   18.426451    2.871317
C    13.561205   25.826804    2.884604
C    29.225518    6.097959    2.862670
C    11.426739   19.656750    2.860424
C    28.511800    4.862612    2.862623
C    33.493914   11.030369    2.875658
C     7.867756    1.165240    2.869900
C     5.730372   39.390005    2.857661
C     3.596220   38.154489    2.869450
C     5.019591   11.029885    2.877738
C     9.291302    3.631812    2.875789
C    27.087187   22.128712    2.867754
C    30.642479    8.563887    2.862850
C     1.459297   36.924518    2.859923
C    24.242052   27.056852    2.874133
C    32.783529   36.919170    2.859602
C    26.373177   25.825903    2.870314
C    27.086793   24.589803    2.870039
C    30.642918   38.154651    2.858788
C     2.885425   12.266072    2.870130
C     1.458918   12.266099    2.870083
C     2.885560   36.924522    2.863330
C     0.745171   35.689033    2.862119
C    11.427105   24.590241    2.884970
C    18.543422   14.722445    2.855979
C    19.970917   14.722343    2.855868
C    28.512212   39.384799    2.864098
C     7.157181   39.390041    2.863454
C     5.016503   38.154408    2.863594
C    31.356437    9.800032    2.866553
C    27.085441    2.401739    2.864322
C    33.494307   35.689151    2.874147
C    15.698569   27.057127    2.889328
C     9.288255    1.165196    2.869778
C    10.001649    2.401336    2.869991
C    31.357101   36.919092    2.863225
C     1.459152   34.453019    2.865663
C    29.222814   38.154706    2.879019
C     7.870975    8.563477    2.874197
C    13.561597   15.959770    2.890635
C     7.157199    9.799502    2.874052
C     0.748435   33.222744    2.881060
C     9.288317    6.097615    2.880849
C    32.783547   34.458829    2.869802
C    10.001847    4.862302    2.881040
C    26.376705   18.426772    2.888452
C    33.497359   33.222820    2.872324
C    12.140670   25.826300    2.890723
C     9.999759   22.128996    2.878357
C     3.599676   35.689005    2.871730
C    26.371781    1.165471    2.872242
C    27.085341    4.862372    2.876525
C     2.885855   34.453052    2.871839
C    27.086958   19.657175    2.879321
C    27.085715   39.384676    2.873094
C    26.375010    3.632173    2.888384
C     1.459230   31.992390    2.876502
C    28.511884    7.333372    2.880454
C    14.271636   27.057017    2.898955
C    15.699011   14.729307    2.883067
C    30.646364   35.689153    2.885875
C     0.745312   30.756738    2.882161
C    11.428623    2.401540    2.882317
C    29.222618    8.563337    2.895120
C     5.730344   36.918964    2.877137
C     5.730286   12.260172    2.889626
C    32.783569   31.986801    2.879916
C    31.357049   34.458979    2.875958
C    32.783143   12.260526    2.890743
C    20.680788   28.292592    2.905362
C    22.101451   28.292431    2.895917
C    33.494308   30.756778    2.895037
C    11.427121   17.196101    2.888809
C     7.870993   38.154402    2.879482
C     2.885848   31.992563    2.883216
C     9.999602   19.656958    2.881890
C    10.001684   39.384607    2.885362
C    10.000408   24.589853    2.899426
C    24.952534   15.959595    2.901885
C     3.595926   13.495815    2.903589
C     0.748220   13.495903    2.904595
C    22.815338   14.728969    2.895852
C    28.513091   24.589547    2.888780
C    27.086575   27.061965    2.888319
C     5.019642   35.689193    2.894271
C     3.596470   33.222768    2.895397
C    28.512264   36.924491    2.883851
C     9.289976   23.359445    2.906933
C     1.459291   29.521274    2.890532
C    28.513559   22.128823    2.887985
C     9.285962   20.893264    2.885871
C    17.833127   28.292533    2.913724
C    14.272195   14.729436    2.898749
C    24.951651    1.165547    2.900195
C    12.141078   15.960084    2.896718
C    24.955869   28.292495    2.894921
C    12.142071    1.165285    2.891418
C    30.646031   11.030021    2.905889
C    29.226208   35.688991    2.886229
C    11.428591    4.861983    2.897008
C    12.138809    3.631875    2.908304
C     9.290920    8.562830    2.906795
C     5.016296   13.495531    2.900767
C     7.867282   11.029620    2.908014
C    31.357028   31.986923    2.887573
C    32.783604   29.526644    2.893518
C     7.157025   36.918810    2.887533
C    10.001652    7.332903    2.898589
C    30.643180   33.222876    2.886870
C    26.375443   38.154654    2.901090
C     2.885689   29.521349    2.896351
C     9.291218   38.154563    2.904794
C    33.497118   13.495924    2.903244
C     3.599705   30.756787    2.894843
C    24.954641    3.632124    2.896716
C    11.428502   39.384448    2.895158
C     0.748537   28.291409    2.909205
C     7.156724   12.259743    2.903023
C    16.412492   28.292585    2.911247
C    28.513166   27.061708    2.895134
C    29.223433   23.359045    2.909130
C    24.241273    2.396197    2.899435
C    26.371525    6.097781    2.895726
C    26.375927   28.291898    2.910460
C    33.497526   28.291264    2.898179
C    29.226780   25.825675    2.896036
C    31.356727   12.260275    2.904107
C    27.085806   36.924618    2.894586
C     5.016757   33.222923    2.901424
C    31.357254   29.526866    2.898489
C    27.085421    7.333282    2.899168
C    24.242025   14.729523    2.906615
C     2.885221   14.725800    2.912495
C     5.730444   34.458838    2.901306
C    30.646566   30.756822    2.910676
C    27.086554   17.196131    2.907197
C     1.458908   14.725865    2.912849
C    13.562505    1.165370    2.919633
C    24.241414   39.390215    2.901257
C     9.286809   25.826164    2.909794
C     9.289784   18.426946    2.914554
C    10.000017   17.196650    2.903761
C    11.427506   27.062888    2.910473
C    28.513737   19.657078    2.899811
C     3.596161   28.291393    2.920036
C    17.833655   13.493869    2.911894
C     7.869782   23.359094    2.908531
C     1.459073   27.061079    2.909047
C    30.643251   28.291349    2.901268
C    20.680978   13.493681    2.916271
C    29.223303   28.291864    2.915025
C    28.512548   34.452988    2.899474
C    26.372863   15.960329    2.912708
C    32.783853   27.055379    2.905255
C    28.512234    9.793719    2.912726
C    29.223244   33.223047    2.912466
C    13.559440    3.631880    2.917575
C    24.955060   38.154576    2.903181
C     5.019566   30.756956    2.921890
C    31.357111   27.055445    2.903031
C     2.885526   27.061118    2.912908
C    29.227633   20.893005    2.901856
C    30.646802   25.825232    2.917646
C    14.272597    2.396043    2.918623
C    16.413235   13.493674    2.905366
C     9.287586   11.029205    2.916727
C     7.866216   20.893472    2.920185
C    29.225876   11.029559    2.917168
C     5.730008   14.730860    2.918182
C    22.814397    2.396076    2.913251
C    28.512653   29.521697    2.913278
C    10.001234    9.793086    2.916388
C    22.814977   29.527956    2.916156
C    29.226431   30.757274    2.911902
C    24.241907   29.528116    2.913113
C     7.156286   24.595305    2.912706
C    22.101643   13.493917    2.917272
C     7.866865   25.825675    2.927181
C     7.867439   35.689148    2.921142
C     7.870374   13.495212    2.918522
C     5.730346   31.986832    2.914468
C     5.016336   28.291637    2.919939
C    12.142109    6.097377    2.915887
C    24.241247    4.867749    2.915646
C    10.000329   27.062521    2.915377
C    13.558176   28.292721    2.924312
C     7.156089   22.123606    2.915192
C    11.427841   14.723671    2.914622
C    27.086186   29.521929    2.914792
C     0.745344   25.824949    2.917592
C    11.428389    7.332991    2.917415
C    19.970312   29.522248    2.925375
C    33.494455   25.825097    2.927310
C    12.138515   38.154503    2.927279
C    30.643583   23.358898    2.917872
C     7.156969   34.459003    2.914912
C    22.814426   39.390334    2.913629
C    22.104510    1.165558    2.928928
C    10.001497   36.924283    2.917468
C    14.272509   39.390035    2.920450
C    28.512702   31.992871    2.914803
C    31.357281   24.594859    2.918283
C    32.783396   14.731184    2.923484
C     5.730209   29.526959    2.922914
C     7.156387   14.730662    2.921768
C     3.599169   25.825069    2.920172
C    26.371824   35.689047    2.910500
C    24.951688    6.097374    2.930382
C     9.286250   15.960046    2.912900
C     5.730009   27.055760    2.923508
C    18.543573   29.522371    2.930018
C     5.019277   25.825631    2.931332
C     3.598930   15.961191    2.926060
C    15.699796    2.395914    2.928131
C     7.156664   27.055965    2.924648
C    13.558613   13.493782    2.922919
C     7.869537   18.427226    2.919498
C     5.729523   24.595260    2.916044
C    10.000287   14.723946    2.915949
C     0.745000   15.961292    2.929024
C     9.290203   13.494338    2.935026
C    30.642882   13.495650    2.923553
C    27.085747   34.453035    2.912420
C     5.019185   15.960652    2.936053
C    12.137851   28.292276    2.939493
C     7.156193   19.663302    2.921235
C    32.784049   24.594795    2.924890
C    10.001249   12.264825    2.930084
C    28.513197   17.196611    2.924247
C    16.409649    1.165428    2.940206
C     7.866350   15.960539    2.933341
C     2.885477   24.588853    2.926096
C    29.223471   18.427148    2.934252
C    22.101054    3.632075    2.925562
C     1.458968   24.588781    2.926995
C    13.559141   38.154428    2.926256
C    12.138447   13.494380    2.939829
C    15.699780   39.390270    2.927760
C    26.375433    8.563081    2.938156
C    20.683942    1.165535    2.927370
C     9.287750   35.688931    2.924468
C    24.241497   36.919088    2.920856
C    14.272622    4.867341    2.933266
C     5.015588   23.358917    2.922228
C    26.372188   30.757225    2.925208
C    11.428232   36.924467    2.926587
C     7.156139   17.190789    2.924690
C     5.729602   22.123470    2.924675
C     7.870377   28.291676    2.931990
C    33.494158   15.960946    2.944684
C    17.830421    1.165445    2.933396
C    30.647121   20.893371    2.937933
C    31.356876   14.731133    2.929391
C     7.156605   29.527321    2.933554
C    27.085784    9.793252    2.930870
C     7.156888   31.986931    2.928745
C    31.357402   22.123268    2.930647
C    27.085920   31.993157    2.925297
C    19.970776    2.401735    2.932167
C     9.290333   28.292242    2.944143
C    22.814582    4.867793    2.930067
C    27.086482   14.724655    2.930998
C    15.699020   29.528210    2.934093
C    22.100903   38.154523    2.925987
C     2.885393   17.197211    2.934348
C    28.512289   12.265391    2.934595
C    18.543461    2.401674    2.935000
C     3.595593   23.358705    2.942461
C     5.729402   17.190728    2.926885
C    24.952055   30.757428    2.941005
C    13.562251    6.096848    2.945794
C    19.970648   39.384807    2.934786
C    16.413056    3.631889    2.937152
C    11.428094    9.792823    2.935254
C    24.956125   13.494052    2.924899
C    24.951889   35.689447    2.937974
C    33.497740   23.358823    2.935132
C     7.870645   33.222911    2.929692
C    11.428123   12.264500    2.938238
C     0.748430   23.358726    2.947812
C     1.458700   17.197396    2.936761
C    29.223057   13.494974    2.944678
C    26.375527   33.223048    2.940569
C    18.543589   39.384824    2.937518
C     5.729493   19.663483    2.929627
C    20.680738    3.631980    2.947940
C     5.019264   20.893502    2.944960
C    12.138225    8.562759    2.949087
C    14.271784   29.528152    2.937699
C    29.226975   15.960634    2.933857
C     5.015575   18.427344    2.930771
C    28.512894   14.724732    2.935038
C    22.104764   30.757185    2.948033
C     7.867123   30.756890    2.950562
C    18.543781   12.263971    2.936651
C    17.833671    3.631887    2.953574
C    32.783857   22.123127    2.940358
C    19.970646   12.264207    2.935341
C     2.885289   22.128655    2.942340
C    26.375953   13.494933    2.945592
C    22.814581   36.918972    2.930971
C    30.646860   15.960902    2.949688
C    15.699607    4.867431    2.942785
C    30.643632   18.427251    2.940675
C    20.680515   38.154655    2.948899
C     3.595687   18.427378    2.948957
C    16.413166   38.154425    2.936730
C    20.684089   30.757524    2.939937
C     1.458800   22.128615    2.944247
C    15.699457   12.257696    2.931944
C    31.357313   19.663189    2.942527
C    14.272049   12.258165    2.935169
C    32.783884   17.191317    2.945672
C     3.599057   20.893261    2.942713
C    24.241546    7.327250    2.944843
C    12.141685   11.029034    2.944795
C    10.001015   29.522016    2.948295
C     0.748333   18.427332    2.956867
C    17.833772   38.154654    2.954238
C    31.357269   17.191116    2.945056
C     2.885277   19.657558    2.944261
C    27.085945   12.265104    2.940378
C    11.427621   29.522119    2.947910
C     0.744946   20.893294    2.947567
C    33.493979   20.893417    2.958511
C    22.815074   12.258080    2.937795
C    14.272421   36.918979    2.941249
C    10.001153   34.452865    2.938492
C     1.458669   19.657484    2.946892
C    26.372137   11.029307    2.942552
C    33.497392   18.427272    2.949650
C    24.241693   31.987218    2.944546
C    24.955259    8.562904    2.946836
C    24.955232   33.223224    2.943221
C    32.783667   19.663316    2.950240
C     9.290655   33.223069    2.953797
C     9.287375   30.757318    2.951111
C    24.241715   34.459209    2.943856
C    24.242297   12.258084    2.935603
C    17.830072   30.757540    2.948418
C    12.141936   35.688906    2.941117
C    19.970685    4.861992    2.952381
C    22.104683    6.097410    2.961109
C    15.699610   36.918860    2.944605
C    18.543573    4.861977    2.954982
C    22.814827   31.987119    2.948331
C    19.970591   36.924569    2.950515
C    13.561924   11.028487    2.963033
C    16.409484   30.757382    2.961698
C    14.272162    7.326737    2.951660
C    22.104697   35.689251    2.958327
C    13.558770    8.562582    2.955417
C    10.000931   31.992978    2.953092
C    18.543533   36.924548    2.953152
C    11.428235   34.452813    2.945620
C    13.562285   35.689275    2.961270
C    24.952345   11.028681    2.959048
C    22.814852    7.327193    2.957147
C    12.141475   30.757320    2.956469
C    22.814862   34.459221    2.951349
C    13.561925   30.757617    2.966119
C    16.409677    6.096937    2.967316
C    20.684141    6.097441    2.958818
C    19.970874   31.993462    2.950378
C    24.241755    9.798826    2.956539
C    20.684133   35.689001    2.953358
C    22.101382   33.223133    2.955082
C    16.409806   11.028331    2.966367
C    11.428002   31.993145    2.958005
C    17.830271    6.097305    2.963205
C    22.104939   11.028683    2.964286
C    17.830045   11.028258    2.954358
C    20.684632   11.028121    2.949942
C    14.272204    9.798619    2.963549
C    18.543234   31.993408    2.954142
C    15.699640    7.326482    2.959698
C    16.409551   35.689241    2.968268
C    17.830171   35.688988    2.958807
C    12.138404   33.222959    2.969438
C    20.680937   33.223236    2.967617
C    15.699327   31.987114    2.963293
C    14.272226   34.459040    2.963033
C    19.970731   34.453033    2.958146
C    14.272230   31.987231    2.964981
C    22.814926    9.798625    2.961558
C    22.101378    8.562768    2.964718
C    13.558967   33.223145    2.965963
C    15.699349    9.798360    2.967359
C    15.699368   34.459203    2.964193
C    18.543396   34.453068    2.960762
C    19.970666    7.332651    2.966709
C    17.833278   33.223165    2.973251
C    18.543532    7.332474    2.968391
C    16.412702   33.223085    2.965624
C    16.413059    8.562493    2.967380
C    19.971032    9.791610    2.954878
C    18.543406    9.791767    2.958663
C    20.680998    8.562043    2.975047
C    17.833447    8.562084    2.978354
C    17.839400   20.903291    6.463893
C    17.844090   18.427164    6.485480
C    18.555472   19.659568    6.496418
C    15.701454   19.669466    6.508922
C    18.555740   22.141974    6.500605
C    19.990288   19.661605    6.499319
C    18.556328   17.194250    6.504258
C    15.700869   17.182543    6.514260
C    19.991126   17.195862    6.507396
C    16.415014   20.900354    6.529578
C    20.703799   18.424534    6.504887
C    20.704234   20.901678    6.524383
C    16.419204   18.426041    6.564348
C    15.701831   22.136138    6.533487
C    17.838431   15.954504    6.544150
C    19.988979   22.142388    6.538841
C    20.705410   15.950492    6.530068
C    18.553154   14.712864    6.535331
C    16.412750   15.951891    6.567168
C    16.419918   23.371900    6.546942
C    22.127546   18.425461    6.551979
C    13.558463   20.902878    6.571391
C    22.132593   20.900988    6.572136
C    20.701087   23.379168    6.547476
C    14.269451   22.132770    6.583488
C    13.554101   18.426685    6.565334
C    19.985298   14.715848    6.575389
C    22.133293   15.949697    6.555171
C    22.128683   23.379337    6.550689
C    14.272392   19.667599    6.616645
C    14.270633   17.186326    6.609164
C    17.845217   23.372256    6.600210
C    13.550707   23.376363    6.561764
C    22.842147   19.667516    6.584630
C    13.556009   15.948208    6.583914
C    22.842739   17.180945    6.580269
C    22.843417   22.142976    6.583225
C    15.703511   24.612666    6.593218
C    12.132794   20.899926    6.615643
C    11.412936   22.141368    6.588993
C    14.264744   14.719404    6.608292
C    24.277431   22.139920    6.587720
C    11.418257   19.659122    6.599909
C    12.125379   23.372824    6.587481
C    11.415690   17.192394    6.598573
C    20.704930   25.848665    6.575101
C    12.130441   18.426882    6.611429
C    14.269545   24.612649    6.591114
C    18.558772   24.607398    6.604527
C    24.988349   20.903748    6.598667
C    19.988422   24.606604    6.619625
C    15.698469   14.721310    6.672989
C     9.982564   19.658511    6.605715
C     9.982062   22.139200    6.598284
C    22.845101   24.615142    6.607561
C    24.274831   19.666380    6.625608
C    22.132037   25.845691    6.597322
C    12.131709   15.951947    6.615127
C    24.987806   23.376897    6.605231
C    16.419951   25.847818    6.621652
C    24.990503   18.424486    6.615943
C    17.839637   13.485496    6.683490
C    20.697456   13.479565    6.643983
C     0.748357    6.095468    6.621224
C     1.461839    4.860699    6.620654
C     0.751594    3.631775    6.611643
C    32.788368    4.866331    6.621840
C    33.501691    3.631513    6.621961
C    33.498504    6.095408    6.611410
C    24.273643   17.180294    6.627453
C     2.887243    4.860668    6.621641
C     9.982963   17.193891    6.619109
C     1.461762    7.330182    6.623450
C    32.788402    2.396584    6.625516
C     1.461840    2.402676    6.626551
C    24.270531   24.613892    6.613312
C     3.597769    3.631529    6.614111
C     2.887510    2.402591    6.627104
C    18.552916   12.245438    6.633369
C     3.600624    6.094949    6.623578
C    31.362842    4.866154    6.626764
C     2.887093    7.329884    6.625107
C    31.362524    2.396182    6.627980
C    17.844566   25.846565    6.625399
C     0.748395    1.167769    6.628737
C    30.649102    3.631249    6.629241
C    33.498424    1.167408    6.617496
C    32.789109    7.324489    6.628244
C     5.016860    3.630984    6.628353
C     0.751887    8.559758    6.618530
C     3.601015    1.167663    6.629696
C    30.652138    1.167047    6.620942
C    32.788303   39.393685    6.632621
C    26.405082   20.901959    6.634620
C    18.560389   27.088715    6.617403
C     1.461976   39.388185    6.630500
C     5.020318    1.167286    6.622432
C     5.730718    2.396084    6.632063
C     5.019794    6.094477    6.618932
C     2.887473   39.388222    6.631339
C    31.362506   39.393500    6.634729
C    33.502464    8.559850    6.632213
C     5.730396    4.865389    6.630423
C     9.267944   20.897687    6.635529
C    30.653240    6.095100    6.624042
C    26.402907   23.373226    6.615680
C    29.232970    1.166908    6.635057
C    29.229857    3.630912    6.625296
C     0.751769   38.159179    6.623180
C     9.267734   23.372822    6.621929
C    33.501802   38.159186    6.634366
C     3.596588    8.559063    6.623017
C    28.519278    2.401787    6.638348
C    22.842720   14.718847    6.651464
C    31.363630    7.324248    6.635992
C     7.156846    2.395555    6.636681
C    16.413162   13.484202    6.686711
C    30.648942   38.159138    6.639550
C    13.546965   13.479196    6.642373
C    19.991298   27.087658    6.626631
C     5.730992   39.393705    6.641267
C     1.461625    9.789493    6.637858
C     9.271441   18.427078    6.638574
C     3.597966   38.159116    6.627002
C    28.519142   39.387648    6.639203
C    32.788577   36.924859    6.638055
C     2.886508    9.789121    6.639691
C     1.462127   36.930247    6.639448
C    31.362895   36.924930    6.641160
C     5.729031    7.322860    6.638940
C    29.229792   38.159108    6.631513
C     7.867783    1.166646    6.631255
C     7.156081    4.864581    6.638773
C     5.017208   38.159254    6.643937
C     7.157126   39.393404    6.645267
C    27.113277   22.137656    6.637798
C     2.887803   36.930153    6.641397
C     5.015068    8.558353    6.642108
C    28.520151    4.859510    6.646738
C    33.498939   35.695725    6.631492
C     7.870431    3.629991    6.640662
C     0.748878   35.695493    6.644350
C    27.093274    2.401574    6.646827
C    29.234307    6.094267    6.647545
C    27.093464   39.387708    6.645794
C    32.790298    9.795335    6.645857
C    32.789475   34.466347    6.648206
C    26.379236    1.166825    6.649631
C    30.653066   35.696097    6.638475
C     9.287278    1.166302    6.649834
C    11.410150   24.611150    6.645966
C    24.977638   25.842255    6.630799
C    28.519789   36.930763    6.653673
C     1.462351   34.460394    6.650298
C     0.749158   11.025741    6.649155
C    15.696126   12.245529    6.681995
C    33.502888   33.230900    6.651148
C    31.363771   34.466771    6.652628
C     0.752633   33.230711    6.641440
C    30.651455    8.559001    6.652192
C     3.601345   35.695750    6.650802
C    22.122998   13.481873    6.676688
C     7.154612    7.321914    6.650030
C     7.871077   38.159197    6.654715
C     5.731106   36.925099    6.653386
C    29.234060   35.696483    6.658098
C    26.409660   18.425530    6.645760
C     7.865902    6.092704    6.640244
C    13.554549   25.852993    6.655145
C    26.382847   38.159299    6.646402
C     9.290090    3.629366    6.643048
C     2.888040   34.460550    6.655312
C    26.383036    3.630060    6.647320
C    32.790241   31.995377    6.656238
C     7.851237   20.898760    6.642384
C     3.598572   11.024792    6.651992
C    33.500212   11.025895    6.645080
C    27.108769   24.601178    6.651264
C    24.981876   15.948928    6.649487
C    19.984872   12.246612    6.688521
C    10.001341    2.400477    6.656385
C    10.001889   39.387277    6.657010
C    27.116654   19.661785    6.656152
C    27.094356    4.858826    6.659762
C    27.094041   36.931114    6.662067
C    24.959667    1.166736    6.651417
C     1.462217   32.001384    6.659665
C    14.263953   12.243035    6.666184
C     5.727056    9.793017    6.656385