 +---------------------------------------------------------------+
 |                                                               |
 |        ####### #     # ####### ####### ####### ######         |
 |        #     # ##    # #          #    #       #     #        |
 |        #     # # #   # #          #    #       #     #        |
 |        #     # #  #  # #####      #    #####   ######         |
 |        #     # #   # # #          #    #       #              |
 |        #     # #    ## #          #    #       #              |
 |        ####### #     # #######    #    ####### #              |
 |                                                               |
 |        Linear-Scaling Ab Initio Total Energy Program          |
 |                                                               |
 |          Release for academic collaborators of ODG            |
 |                                             Version 6.1.59    |
 | Remote: https://github.com/onetep-devel/onetep.git            |
 | Local branch: master                                          |
 | Commit ID: 3df6b8ca88fa1735659d3248d54c94b50edec21b           |
 | Date: Thu Oct 5 13:49:52 2023 +0200                           |
 | Working tree clean                                            |
 |                                                               |
 +---------------------------------------------------------------+
 |                                                               |
 |  Authors:                                                     |
 |  Jacek Dziedzic, Peter D. Haynes, Nicholas D. M. Hine,        |
 |  Arash A. Mostofi, Mike C. Payne and Chris-Kriton Skylaris    |
 |                                                               |
 |  Contributors:                                                |
 |  J. Aarons, L. Andrinopoulos, P. W. Avraam, R. A. Bell,       |
 |  A. Bhandari, G. A. Bramley, R. J. Charlton, S. J. Clark,     |
 |  R. J. Clements, G. C. Constantinescu, F. Corsetti,           |
 |  N. Corsini, O. Dieguez, S. M. M. Dubois, K. K. B. Duff,      |
 |  J. M. Escartin, M. Escobar Azor, A. Greco,                   |
 |  H. Helal, Q. O. Hill, L. P. Lee, J.-H. Li,                   |
 |  E. B. Linscott, G. Moynihan, D. D. O`Regan,                  |
 |  O. K. Okan, M. J. S. Phipps, C. J. Pickard,                  |
 |  J. C. A. Prentice, M. I. J. Probert, L. E. Ratcliff,         |
 |  M. Robinson, A. Ruiz Serrano, M. dos Santos Dias,            |
 |  J. S. Spencer, E. W. Tait, G. Teobaldi, D. Turban,           |
 |  V. Vitale, K. A. Wilkinson, C. Weber, J. C. Womack,          |
 |  N. Yeung and T. J. Zuehlsdorff                               |
 |                                                               |
 |                                   Copyright (c) 2004-2023     |
 |                                                               |
 |  Please cite:                                                 |
 |  "The ONETEP linear-scaling density functional theory program"|
 |   J. Chem. Phys. 152(17) 174111 (2020)                        |
 |                                                               |
 |          in all publications arising from your use of ONETEP. |
 |                                                               |
 +---------------------------------------------------------------+
 |                                                               |
 |   ONETEP is based on developments described in the following  |
 |   publications:                                               |
 |                                                               |
 |  "Nonorthogonal generalized Wannier function pseudopotential  |
 |   plane-wave method".                                         |
 |   C.-K. Skylaris, A. A. Mostofi, P. D. Haynes, O. Dieguez,    |
 |   M. C. Payne.                                                |
 |   Phys. Rev. B 66 035119 (2002).                              |
 |                                                               |
 |  "Preconditioned iterative minimization for linear-scaling    |
 |   electronic structure calculations".                         |
 |   A. A. Mostofi, P. D. Haynes, C.-K. Skylaris, M. C. Payne.   |
 |   J. Chem. Phys. 119(17), pp.8842-8848 (2003).                |
 |                                                               |
 |  "Total-energy calculations on a real space grid with         |
 |   localized functions and a plane-wave basis".                |
 |   A. A. Mostofi, C.-K. Skylaris, P. D. Haynes, M. C. Payne.   |
 |   Comput. Phys. Commun. 147, pp.788-802 (2002).               |
 |                                                               |
 |  "Accurate kinetic energy evaluation in electronic structure  |
 |   calculations with localized functions on real space grids"  |
 |   C.-K. Skylaris, A. A. Mostofi, P. D. Haynes, C. J. Pickard, |
 |   M. C. Payne.                                                |
 |   Comput. Phys. Commun. 140, pp.315-322 (2001).               |
 |                                                               |
 |  "Accurate ionic forces and geometry optimization in linear-  |
 |   scaling density-functional theory with local orbitals"      |
 |   N. D. M. Hine, M. Robinson, P. D. Haynes, C.-K. Skylaris,   |
 |   M. C. Payne, and A. A. Mostofi.                             |
 |   Phys. Rev. B 83 195102 (2011).                              |
 |                                                               |
 +---------------------------------------------------------------+

Job started: 23-10-2023 09:44 (+0100)
 
Reading parameters from file "graphite.dat" ...... done

If your calculation crashes here, before "Checking processes and threads..."
is displayed, then your stack size is insufficient.
If so, use "ulimit -s unlimited" at runtime.
You can disable this check with "check_stack_size F".

Checking processes and threads...
   Determining the default number of threads...
      No default threads set at compilation time: defaulting to 1.
      OpenMP library call suggests 8 threads.
      Hybrid MPI-OpenMP compilation detected.
      Number of MPI processes > 1.
      OMP_NUM_THREADS environment variable present and
      its value matches the one obtained from the OpenMP library call.
      Using this value as default.
      Default threads: 8
      Default applies to threads_max and threads_num_fftboxes.
      Settings in the input file override this default.
   ... done

   Running with 128 MPI processes.
   There are 16 MPI processes running on the same node as the root process.
   Each MPI process is using: 
               1 threads for simulation cell FFTs.
               1 threads for parallel FFT box operations.
               8 threads for loops over batched FFT box operations.
               8 threads in other parallel regions.
   MPI Interface: S1 (use mpi_f08) (-DMPI -DUSE_MPI_F08).
   MPI_ASYNC_PROTECTS_NONBLOCKING: Yes. MPI_SUBARRAYS_SUPPORTED: Yes.
   GPU Interface: None.
... done

Basic input checks...
Resetting ngwf_cg_rotate to TRUE for EDFT calculations
... done

Reading geometry and species blocks from file "graphite.dat" ...
  Reading POSITIONS geometry from str.xyz

  <species_atomic_set> block not found: NGWF initialisation set to SOLVE
IS: Dielectric excluded regions:
    - NONE.
IS: Assigning soft sphere radii for soft sphere solvation...
IS: No soft sphere radii specified. Default Alvarez radii used for all atoms.

----------- SOFT SPHERE RADII -----------
Li  5.333
C   4.442
-----------------------------------------

    
  Number of PPD points along a3 set to 1.  This is 
  the default value, it may have been provided also in the input file.
... done


--------------------------------------------------------------------------------
---------------------------------- INPUT FILE ----------------------------------
--------------------------------------------------------------------------------

task geometryoptimization                                                       
geom_method LBFGS                                                               
geom_continuation T                                                             
write_xyz T                                                                     
edft_grand_canonical T                                                          
edft_reference_potential  -4.42 eV                                              
edft_electrode_potential -0.1 V                                                 
edft_nelec_thres 0.000001                                                       
is_dielectric_function soft_sphere                                              
is_implicit_solvent T                                                           
is_smeared_ion_rep T                                                            
is_include_apolar T                                                             
is_solvation_properties F                                                       
is_pbe                    full                                                  
is_pbe_temperature        298.15                                                
is_pbe_bc_debye_screening T                                                     
is_pbe_neutralisation_scheme counterions_auto                                   
is_pbe_energy_tolerance 1E+50                                                   
is_bc_coarseness 5                                                              
is_bc_threshold 1E-9                                                            
is_bulk_permittivity 90.7                                                       
is_solvent_surf_tension 0.0506 N/m                                              
%block sol_ions                                                                 
Li  +1 1.0                                                                      
PF6 -1 1.0                                                                      
%endblock sol_ions                                                              
is_steric_pot_type M                                                            
is_hc_steric_dens_isovalue  0.001                                               
is_hc_steric_smearing         0.4 bohr                                          
is_steric_write T                                                               
%block species_solvent_radius                                                   
Li 3.0                                                                          
C 3.0                                                                           
%endblock species_solvent_radius                                                
multigrid_bc:   P P P                                                           
ion_ion_bc:     P P P                                                           
pspot_bc:       P P P                                                           
smeared_ion_bc: P P P                                                           
mg_max_iters_vcycle 500                                                         
mg_vcyc_smoother_iter_pre 4                                                     
mg_vcyc_smoother_iter_post 4                                                    
mg_max_res_ratio 1000.0                                                         
mg_max_iters_newton 300                                                         
edft                    : T                                                     
edft_smearing_width     : 0.1 eV                                                
spin                    : 0.0                                                   
edft_spin_fix           : 2                                                     
spin_polarized          : T                                                     
cutoff_energy :  1000 eV                                                        
kernel_cutoff : 1000 bohr                                                       
xc_functional PBE                                                               
dispersion 4                                                                    
output_detail VERBOSE                                                           
do_properties T                                                                 
cube_format F                                                                   
dx_format F                                                                     
write_denskern T                                                                
write_tightbox_ngwfs T                                                          
write_hamiltonian T                                                             
%block species                                                                  
Li Li 3  5  8.0                                                                 
C  C  6  4  8.0                                                                 
%endblock species                                                               
%block species_pot                                                              
Li '/work/e89/e89/arihant/pseudo/Li.usp'                                        
C '/work/e89/e89/arihant/pseudo/C.usp'                                          
%endblock species_pot                                                           
%BLOCK LATTICE_CART                                                             
ang                                                                             
34.16920551     0.00000000     0.00000000                                       
0.00000000    19.72760000     0.00000000                                        
0.00000000     0.00000000   100.02798000                                        
%ENDBLOCK LATTICE_CART                                                          
positions_xyz_file str.xyz                                                      
     Hash =   000005060151686817321799

--------------------------------------------------------------------------------
-------------------------------- END INPUT FILE --------------------------------
--------------------------------------------------------------------------------


 
 ESDF WARNING(1): "ispbeenergytolerance" (esdf_physical) has no units. Assume "hartree".
<<<<<<<<<<<<<<<<<<<<<<<<<<<<<<<<< Full system >>>>>>>>>>>>>>>>>>>>>>>>>>>>>>>>>>
<<<<<<<<<<<<<<<<<<<<<<<<< Pseudopotential information >>>>>>>>>>>>>>>>>>>>>>>>>>
File: /work/e89/e89/arihant/pseudo/Li.usp [ 2001 points up to Gmax=  52.9 (1/bohr)]
  Atomic number:  3;  ionic charge:  3.000000
    Shell 1: l = 0; rc = 1.19 bohr
    Shell 2: l = 0; rc = 1.25 bohr
File: /work/e89/e89/arihant/pseudo/C.usp [ 2001 points up to Gmax=  52.9 (1/bohr)]
  Atomic number:  6;  ionic charge:  4.000000
    Shell 1: l = 0; rc = 1.19 bohr
  Core charge supplied for Nonlinear Core Corrections
<<<<<<<<<<<<<<<<<<<<<<<<<<<<<<<<<<<<<<<<>>>>>>>>>>>>>>>>>>>>>>>>>>>>>>>>>>>>>>>>

-------------------------- Atom counting information ---------------------------
Symbol    Natoms    Nngwfs    Nprojs
  Li        12        60        24
  C        512      2048       512
.......   ......    ......    ......
Totals:    524      2108       536
--------------------------------------------------------------------------------

=============================== PSINC grid sizes ===============================
                      Simulation cell:  143 x  91 x 416
                              FFT-box:  117 x  91 x 117
                                  PPD:   11 x   7 x   1
Grid space d1=  0.451541543008a0 (KE cutoff=  37.25706Eh =1013.81618eV)
Grid space d2=  0.409667706512a0 (KE cutoff=  45.26271Eh =1231.66098eV)
Grid space d3=  0.454388192297a0 (KE cutoff=  36.79171Eh =1001.15326eV)
================================================================================
  
WARNING in cell_grid_distribute:
Average of less than one 23-slab per proc, so workload cannot be
equally balanced between procs.

********************* Fourier parallelisation information **********************
       Coarse grid (whole simulation cell) dimensions:    143    91   416
          Real-space ('12') slabs/proc (min max mean):      3     4     3
         Recip-space ('23') slabs/proc (min max mean):      0     1     0
********************************************************************************

********************* Fourier parallelisation information **********************
       Double grid (whole simulation cell) dimensions:    286   182   832
          Real-space ('12') slabs/proc (min max mean):      6     7     6
         Recip-space ('23') slabs/proc (min max mean):      1     2     1
********************************************************************************

********************* Fourier parallelisation information **********************
         Fine grid (whole simulation cell) dimensions:    288   184   832
          Real-space ('12') slabs/proc (min max mean):      6     7     6
         Recip-space ('23') slabs/proc (min max mean):      1     2     1
         Grid scale modified to satisfy multigrid solver grid constraints
         Grid scale values after modifification:         2.01  2.02  2.00
********************************************************************************
ONETEP fine grid is 288 x 184 x 832 gridpoints, 64.5704 x 37.2798 x 189.0255 bohr.
FD multigrid is     288 x 184 x 832 gridpoints, 64.5704 x 37.2798 x 189.0255 bohr.


Atom SCF Calculation for Li : Z (AE atom) =   3 : Z (PS atom) =   3
Config String:
Orbitals (num,occ):  3     2.00 1.00 0.00
Orbitals   (num,l):  3        0    0    1
Real-space Grid (nr,dr,rmax): 1343    0.0059612519    8.0000000000
Spherical Bessel Basis (nsws,lmax,cutoff):   37    1  220.4959463253
Confining potential (l,width,scale):  0    3.0000000000  100.0000000000
Confining potential (l,width,scale):  1    3.0000000000  100.0000000000
  1         -3.7050169094   -5.2301177776    2.5388568852   -0.9989538802
  2         -6.0510920273   -4.2679357854    3.2724001845   -1.3422946715
  3         -6.7975021434   -3.8722499620    3.6648237887   -1.5325279919
  4         -7.0147472228   -3.7673066376    3.7864613280   -1.5966989055
  5         -7.0774132854   -3.7446783348    3.8157063634   -1.6161454686
  6         -7.0951992563   -3.7420177453    3.8204515040   -1.6217593843
  7         -7.1001226024   -3.7430426481    3.8200527077   -1.6233132433
  8         -7.1014239576   -3.7441529610    3.8191274553   -1.6237164860
  9         -7.1017352306   -3.7448434699    3.8184905098   -1.6238077213
 10         -7.1017916056   -3.7452114113    3.8181373932   -1.6238209669
 11         -7.1017908912   -3.7453946820    3.8179578223   -1.6238181917
 12         -7.1017822190   -3.7454828903    3.8178702968   -1.6238141227
 13         -7.1017768840   -3.7455162316    3.8178369316   -1.6238119017
 14         -7.1017732849   -3.7455353767    3.8178176959   -1.6238104459
 15         -7.1017709700   -3.7455463461    3.8178066371   -1.6238095253
 16         -7.1017695244   -3.7455526225    3.8178002910   -1.6238089565
 17         -7.1017686390   -3.7455562110    3.8177966534   -1.6238086105
 18         -7.1017681040   -3.7455582619    3.8177945697   -1.6238084022
 19         -7.1017677838   -3.7455594341    3.8177933764   -1.6238082778
 20         -7.1017675934   -3.7455601042    3.8177926929   -1.6238082039
 21         -7.1017674808   -3.7455604874    3.8177923014   -1.6238081602
 22         -7.1017674145   -3.7455607066    3.8177920771   -1.6238081344
Atom SCF converged after  22 iterations to a total energy of     -7.10176741

Atom SCF Calculation for C  : Z (AE atom) =   6 : Z (PS atom) =   4
Config String:
Orbitals (num,occ):  2     2.00 2.00
Orbitals   (num,l):  2        0    1
Real-space Grid (nr,dr,rmax): 1343    0.0059612519    8.0000000000
Spherical Bessel Basis (nsws,lmax,cutoff):   37    1  220.4959463253
Confining potential (l,width,scale):  0    3.0000000000  100.0000000000
Confining potential (l,width,scale):  1    3.0000000000  100.0000000000
  1         -5.8177092822   -1.2555419264    4.5135233515   -1.7471920893
  2         -5.6032261188   -1.3440047989    4.4246587726   -1.7090653419
  3         -5.5936068668   -1.3561735374    4.4140765627   -1.7034094417
  4         -5.5958505747   -1.3587284552    4.4121342699   -1.7022848669
  5         -5.5969687665   -1.3601698222    4.4109982405   -1.7017057890
  6         -5.5975400979   -1.3609792837    4.4103423276   -1.7013975981
  7         -5.5978435204   -1.3614297943    4.4099696476   -1.7012314972
  8         -5.5980096069   -1.3616786122    4.4097605138   -1.7011416075
  9         -5.5981021113   -1.3618152853    4.4096441572   -1.7010929151
 10         -5.5981539939   -1.3618900852    4.4095797860   -1.7010665406
 11         -5.5981831160   -1.3619309228    4.4095443105   -1.7010522599
 12         -5.5981994243   -1.3619531807    4.4095248124   -1.7010445305
 13         -5.5982085235   -1.3619652972    4.4095141175   -1.7010403487
 14         -5.5982135796   -1.3619718867    4.4095082606   -1.7010380870
 15         -5.5982163780   -1.3619754676    4.4095050573   -1.7010368642
 16         -5.5982179208   -1.3619774123    4.4095033073   -1.7010362032
 17         -5.5982187685   -1.3619784678    4.4095023522   -1.7010358460
 18         -5.5982192328   -1.3619790404    4.4095018314   -1.7010356530
 19         -5.5982194864   -1.3619793509    4.4095015476   -1.7010355488
 20         -5.5982196245   -1.3619795192    4.4095013931   -1.7010354925
 21         -5.5982196995   -1.3619796104    4.4095013090   -1.7010354621
Atom SCF converged after  21 iterations to a total energy of     -5.59821970

BC: Task: GEOMETRYOPTIMIZATION
BC: +++++++++++++++ Summary of boundary conditions ++++++++++++++
BC: |       Component       |     Keyword     |   Periodicity   |
BC: |                       |                 |     X  Y  Z [1] |
BC: |-----------------------------------------------------------|
BC: | Ion-ion               | ion_ion_bc [2]  |     P  P  P     |
BC: | Local pseudopotential | pspot_bc [3]    |     P  P  P     |
BC: | Multigrid solver      | multigrid_bc    |     P  P  P     |
BC: | Smeared ions          | smeared_ion_bc  |     P  P  P     |
BC: | Van der Waals         | vdw_bc          |     P  P  P     |
BC: +++++++++++++++++++++++++++++++++++++++++++++++++++++++++++++
BC: P: Periodic, O: Open.
BC: [1] Not strictly along X, Y, Z but rather along lattice vectors A1, A2, A3.
BC: [2] Also affected by: pbc_correction_cutoff, cutoff_coulomb_type,
BC:     is_smeared_ion_rep, is_implicit_solvent, openbc_ion_ion.
BC: [3] Also affected by: is_smeared_ion_rep, is_implicit_solvent, openbc_pspot.

================================================================================
<<<<<<<<<<<<<<<< Resuming previous ONETEP Geometry Optimisation >>>>>>>>>>>>>>>>
================================================================================

 Geometry Optimisation: output file is "graphite.geom"
 
 Reading continuation file "graphite.continuation" ...done
 Geometry Optimisation: read_tightbox_ngwfs parameter over-ridden to TRUE
 Geometry Optimisation: read_hamiltonian parameter over-ridden to T
 
                           -------------------------------
                                     Cell Contents
                           -------------------------------
 
            xxxxxxxxxxxxxxxxxxxxxxxxxxxxxxxxxxxxxxxxxxxxxxxxxxxxxxxxxxxx
            x  Element    Atom      Absolute co-ordinates of atoms     x
            x            Number        x           y           z       x
            x----------------------------------------------------------x
            x    Li        1       24.684592    4.313472   16.242279   x
            x    Li        2       20.325294    1.668517   16.300383   x
            x    Li        3       20.382194   11.850342   16.427920   x
            x    Li        4       20.350640    6.801419   16.797098   x
            x    Li        5       15.894026    9.322992   16.488716   x
            x    Li        6       15.023259    3.774005   16.588041   x
            x    Li        7       25.792726    9.970698   16.509992   x
            x    Li        8       22.919448    7.876844   20.720720   x
            x    Li        9       18.112168    5.362529   20.798278   x
            x    Li       10       22.774633    2.358953   21.560283   x
            x    Li       11       18.284473   10.875994   21.799965   x
            x    Li       12       20.770888    6.561673   26.592800   x
            x    C        13       32.359160    4.520105    6.345684   x
            x    C        14       29.670896    4.519883    6.363615   x
            x    C        15       36.394196    6.850098    6.332118   x
            x    C        16       33.706041    6.850154    6.338611   x
            x    C        17       40.429376    9.180012    6.331086   x
            x    C        18       37.741062    9.180136    6.330014   x
            x    C        19       32.359087    9.180158    6.348801   x
            x    C        20       41.776622   11.510123    6.332767   x
            x    C        21       36.394297   11.510081    6.335414   x
            x    C        22       44.465085   11.510170    6.334140   x
            x    C        23       45.812420   13.840287    6.338268   x
            x    C        24        0.072623   23.159960    6.325388   x
            x    C        25       61.954644   23.160277    6.328219   x
            x    C        26        4.108479   25.490066    6.324152   x
            x    C        27        1.419960   25.490235    6.323294   x
            x    C        28        8.144233   27.820217    6.325819   x
            x    C        29        5.455821   27.820447    6.323782   x
            x    C        30        0.072440   27.820515    6.327799   x
            x    C        31        9.491533   30.150319    6.328209   x
            x    C        32        4.108091   30.150718    6.328211   x
            x    C        33       12.179635   30.149809    6.331226   x
            x    C        34       13.526787   32.479586    6.342552   x
            x    C        35       36.394385    2.190260    6.355176   x
            x    C        36       33.706002    2.189981    6.349911   x
            x    C        37       28.323464    2.189622    6.369011   x
            x    C        38       25.634815    2.189225    6.389660   x
            x    C        39       40.429540    4.520217    6.354432   x
            x    C        40       37.741218    4.520147    6.344066   x
            x    C        41       41.776403    6.850179    6.343659   x
            x    C        42       44.464842    6.850216    6.352749   x
            x    C        43       28.323634    6.850203    6.384105   x
            x    C        44       45.812130    9.180220    6.342849   x
            x    C        45       48.500620    9.180320    6.349034   x
            x    C        46       29.670826    9.180590    6.375150   x
            x    C        47       33.705973   11.510367    6.347093   x
            x    C        48       49.847937   11.510484    6.342246   x
            x    C        49       52.536409   11.510368    6.347394   x
            x    C        50       40.429852   13.839986    6.339639   x
            x    C        51       37.741313   13.840138    6.343980   x
            x    C        52       48.500882   13.840391    6.337837   x
            x    C        53       53.883682   13.840481    6.342755   x
            x    C        54       44.465539   16.170231    6.349947   x
            x    C        55       49.848210   16.170514    6.343357   x
            x    C        56       52.536520   16.170476    6.340149   x
            x    C        57       61.954716   18.500136    6.339185   x
            x    C        58       56.571914   18.500324    6.337442   x
            x    C        59        4.108453   20.829494    6.348076   x
            x    C        60        1.420030   20.829730    6.337494   x
            x    C        61       60.607344   20.830173    6.330952   x
            x    C        62       57.919023   20.830385    6.337168   x
            x    C        63        8.144438   23.159697    6.349010   x
            x    C        64        5.456094   23.159753    6.337887   x
            x    C        65        9.492041   25.489997    6.338019   x
            x    C        66       12.180118   25.489907    6.346732   x
            x    C        67       60.607198   25.490418    6.336244   x
            x    C        68       13.527758   27.819795    6.337844   x
            x    C        69       16.215588   27.819517    6.345401   x
            x    C        70       61.954474   27.820530    6.339046   x
            x    C        71        1.419719   30.150794    6.334003   x
            x    C        72       17.563116   30.149121    6.344982   x
            x    C        73       20.250894   30.148943    6.353108   x
            x    C        74        8.143522   32.480508    6.336489   x
            x    C        75        5.455321   32.480828    6.338808   x
            x    C        76       16.214833   32.478936    6.348223   x
            x    C        77       21.598577   32.478590    6.359903   x
            x    C        78       12.178524   34.809634    6.360075   x
            x    C        79       17.562175   34.808573    6.370745   x
            x    C        80       20.250576   34.808315    6.372635   x
            x    C        81       29.670485   37.139296    6.361908   x
            x    C        82       24.287055   37.138614    6.383015   x
            x    C        83       24.287160    4.519557    6.419907   x
            x    C        84       49.847868    6.850384    6.371073   x
            x    C        85       25.634988    6.850154    6.419630   x
            x    C        86       53.883727    9.180379    6.364506   x
            x    C        87       28.323356   11.510713    6.399116   x
            x    C        88       32.358954   13.840197    6.366029   x
            x    C        89       56.572042   13.840342    6.347383   x
            x    C        90       41.777070   16.170107    6.354320   x
            x    C        91       36.394416   16.169928    6.363212   x
            x    C        92       60.607539   16.170122    6.347089   x
            x    C        93       57.919284   16.170349    6.341703   x
            x    C        94        0.072571   18.499744    6.346742   x
            x    C        95       45.812905   18.500358    6.368013   x
            x    C        96       48.501224   18.500451    6.359495   x
            x    C        97       53.883652   18.500616    6.343622   x
            x    C        98       56.571735   23.160400    6.350849   x
            x    C        99       17.563379   25.489918    6.366583   x
            x    C       100       57.918897   25.490474    6.354540   x
            x    C       101       21.598632   27.819366    6.365184   x
            x    C       102       60.607111   30.150558    6.359748   x
            x    C       103        0.072251   32.480859    6.351600   x
            x    C       104       24.286698   32.478785    6.364067   x
            x    C       105        9.490403   34.810363    6.356607   x
            x    C       106        4.107725   34.810875    6.358345   x
            x    C       107       28.322998   34.809369    6.366430   x
            x    C       108       25.634486   34.808647    6.368507   x
            x    C       109       32.359006   37.139885    6.360071   x
            x    C       110       13.525509   37.139284    6.394894   x
            x    C       111       16.213886   37.138692    6.400360   x
            x    C       112       21.598302   37.138297    6.393628   x
            x    C       113       17.561353    2.189001    6.438344   x
            x    C       114       41.776679    2.190375    6.388263   x
            x    C       115       20.250233    2.188838    6.428620   x
            x    C       116       21.598260    4.519410    6.448459   x
            x    C       117       45.812091    4.520357    6.382125   x
            x    C       118       48.500580    4.520404    6.392006   x
            x    C       119       52.536326    6.850372    6.378262   x
            x    C       120       24.287259    9.180557    6.452959   x
            x    C       121       56.572107    9.180404    6.373522   x
            x    C       122       57.919340   11.510458    6.364487   x
            x    C       123       25.634841   11.511093    6.439367   x
            x    C       124       29.670391   13.840849    6.390604   x
            x    C       125       61.954765   13.840166    6.368071   x
            x    C       126       33.705781   16.170267    6.373412   x
            x    C       127        1.419784   16.169798    6.373513   x
            x    C       128       40.430203   18.500048    6.378391   x
            x    C       129        5.455594   18.499532    6.380460   x
            x    C       130       49.848374   20.830537    6.376587   x
            x    C       131        9.491686   20.829755    6.383120   x
            x    C       132       52.536531   20.830580    6.360895   x
            x    C       133       53.883659   23.160581    6.371468   x
            x    C       134       13.527709   23.160103    6.376631   x
            x    C       135       16.215471   23.160316    6.388125   x
            x    C       136       20.250946   25.489858    6.375807   x
            x    C       137       56.571677   27.820403    6.382834   x
            x    C       138       24.286377   27.819463    6.375944   x
            x    C       139       25.634010   30.149151    6.371966   x
            x    C       140       57.918931   30.150422    6.385310   x
            x    C       141       61.954458   32.480596    6.366181   x
            x    C       142       29.669929   32.479564    6.377917   x
            x    C       143        1.419540   34.810817    6.365236   x
            x    C       144       33.705864   34.809938    6.381190   x
            x    C       145        8.142668   37.140438    6.383074   x
            x    C       146       37.741373   37.140110    6.386005   x
            x    C       147       12.177517    2.189707    6.431514   x
            x    C       148       44.465149    2.190417    6.405881   x
            x    C       149        9.489411    2.190335    6.421464   x
            x    C       150       53.883584    4.520383    6.401880   x
            x    C       151       57.919350    6.850400    6.393317   x
            x    C       152       60.607587   11.510228    6.376959   x
            x    C       153        0.072448   13.839934    6.384403   x
            x    C       154       28.322805   16.170700    6.410410   x
            x    C       155        4.107873   16.169661    6.395084   x
            x    C       156       37.741581   18.499970    6.383177   x
            x    C       157       32.358536   18.500079    6.394828   x
            x    C       158        8.143722   18.499734    6.404258   x
            x    C       159       44.465954   20.830177    6.399721   x
            x    C       160       12.179699   20.830162    6.402249   x
            x    C       161       41.777435   20.830047    6.406099   x
            x    C       162       21.598483   23.160433    6.402682   x
            x    C       163       25.633721   25.489928    6.395147   x
            x    C       164       28.322234   30.149760    6.383499   x
            x    C       165       32.358562   32.480157    6.391066   x
            x    C       166       60.607204   34.810519    6.389323   x
            x    C       167       36.394434   34.810336    6.400285   x
            x    C       168        5.454716   37.140740    6.381586   x
            x    C       169        0.072239   37.140654    6.387757   x
            x    C       170       40.429844   37.140332    6.408256   x
            x    C       171       49.847894    2.190457    6.425248   x
            x    C       172        4.107379    2.190848    6.406873   x
            x    C       173        1.419460    2.190707    6.404880   x
            x    C       174       52.536286    2.190495    6.423891   x
            x    C       175       60.607423    2.190627    6.407716   x
            x    C       176       57.919196    2.190347    6.412665   x
            x    C       177       16.213275    4.519334    6.480838   x
            x    C       178       13.524633    4.519636    6.477962   x
            x    C       179       56.571961    4.520446    6.403812   x
            x    C       180       61.954740    4.520502    6.410735   x
            x    C       181       60.607580    6.850423    6.402663   x
            x    C       182       20.250281    6.849921    6.490381   x
            x    C       183       61.954766    9.180313    6.398919   x
            x    C       184        0.072292    9.180338    6.415385   x
            x    C       185       21.598478    9.180795    6.494350   x
            x    C       186        1.419432   11.510141    6.413325   x
            x    C       187        5.454719   13.839970    6.434944   x
            x    C       188       24.287031   13.841411    6.461819   x
            x    C       189        9.490502   16.170211    6.453393   x
            x    C       190       25.634383   16.171348    6.439312   x
            x    C       191       29.669894   18.500519    6.406960   x
            x    C       192       13.526769   18.500790    6.451948   x
            x    C       193       24.286520   18.501208    6.440455   x
            x    C       194       17.562896   20.830911    6.428018   x
            x    C       195       36.394389   20.829832    6.408497   x
            x    C       196       33.705539   20.830046    6.409598   x
            x    C       197       20.250683   20.831029    6.430262   x
            x    C       198       28.322223   20.830346    6.414765   x
            x    C       199       25.633888   20.830751    6.421062   x
            x    C       200       48.501451   23.160404    6.413814   x
            x    C       201       45.813187   23.160255    6.429510   x
            x    C       202       24.286194   23.160379    6.406516   x
            x    C       203       29.669416   23.160191    6.415146   x
            x    C       204       28.321922   25.490087    6.405684   x
            x    C       205       52.536535   25.490394    6.407211   x
            x    C       206       29.669359   27.819932    6.403207   x
            x    C       207       32.358013   27.820227    6.419682   x
            x    C       208       53.883639   27.820277    6.415757   x
            x    C       209       33.705449   30.150215    6.418123   x
            x    C       210       37.741443   32.480510    6.437515   x
            x    C       211       56.571734   32.480296    6.413781   x
            x    C       212       41.777036   34.810551    6.452324   x
            x    C       213       57.919016   34.810195    6.410073   x
            x    C       214       61.954583   37.140439    6.396113   x
            x    C       215       45.812475   37.140374    6.448354   x
            x    C       216       56.571831   37.140195    6.421898   x
            x    C       217        5.454251    4.520563    6.435981   x
            x    C       218        8.142077    4.520439    6.450655   x
            x    C       219        0.072357    4.520656    6.416233   x
            x    C       220        1.419402    6.850504    6.427412   x
            x    C       221        4.107190    6.850485    6.444423   x
            x    C       222       17.561238    6.849945    6.511788   x
            x    C       223        5.454201    9.180310    6.461559   x
            x    C       224        4.107310   11.510151    6.438974   x
            x    C       225       20.250489   11.511420    6.519344   x
            x    C       226        8.142597   13.840286    6.467216   x
            x    C       227       21.598443   13.841822    6.498526   x
            x    C       228       20.250526   16.171948    6.492273   x
            x    C       229       12.178483   16.170928    6.480534   x
            x    C       230       16.214749   18.501377    6.464556   x
            x    C       231       21.598435   18.501561    6.457473   x
            x    C       232       37.741546   23.159991    6.433791   x
            x    C       233       40.430301   23.160094    6.437152   x
            x    C       234       32.358044   23.160081    6.420521   x
            x    C       235       33.705302   25.490172    6.431744   x
            x    C       236       36.394190   25.490254    6.445055   x
            x    C       237       49.848548   25.490413    6.435433   x
            x    C       238       37.741449   27.820401    6.460082   x
            x    C       239       36.394162   30.150620    6.441321   x
            x    C       240       52.536602   30.150185    6.450880   x
            x    C       241       40.430047   32.480660    6.463925   x
            x    C       242       53.883694   32.480145    6.446021   x
            x    C       243       52.536473   34.810238    6.458044   x
            x    C       244       44.465476   34.810565    6.471594   x
            x    C       245       48.500893   37.140359    6.454375   x
            x    C       246       53.883586   37.140162    6.438332   x
            x    C       247        9.488910    6.850289    6.488848   x
            x    C       248       12.177018    6.850173    6.508059   x
            x    C       249        8.141939    9.180477    6.489842   x
            x    C       250       16.213373    9.180698    6.539264   x
            x    C       251       13.524667    9.180581    6.535599   x
            x    C       252        9.489278   11.510530    6.502291   x
            x    C       253       17.561585   11.511429    6.541314   x
            x    C       254       16.213913   13.841842    6.531852   x
            x    C       255       13.525424   13.841303    6.522534   x
            x    C       256       17.562215   16.171919    6.503496   x
            x    C       257       41.777512   25.490211    6.466985   x
            x    C       258       44.466075   25.490245    6.466020   x
            x    C       259       40.430202   27.820413    6.477335   x
            x    C       260       48.501467   27.820275    6.473603   x
            x    C       261       45.813179   27.820247    6.488753   x
            x    C       262       41.777337   30.150564    6.488421   x
            x    C       263       49.848562   30.150262    6.480683   x
            x    C       264       48.501239   32.480407    6.492069   x
            x    C       265       45.812849   32.480499    6.497151   x
            x    C       266       49.848222   34.810299    6.475896   x
            x    C       267       12.177408   11.510988    6.529041   x
            x    C       268       44.465839   30.150482    6.499096   x
            x    C       269       27.038251    4.501079   12.517618   x
            x    C       270       29.730765    4.506340   12.503750   x
            x    C       271       31.073092    6.838253   12.507118   x
            x    C       272       29.732027    9.171810   12.492747   x
            x    C       273       27.038091    9.176555   12.484447   x
            x    C       274       59.260124   23.149328   12.521468   x
            x    C       275       61.945556   23.147802   12.511669   x
            x    C       276       63.289268   25.478762   12.514979   x
            x    C       277       61.943937   27.809655   12.525876   x
            x    C       278       59.258849   27.809272   12.549248   x
            x    C       279       25.684049    2.156628   12.527992   x
            x    C       280       31.063974    2.174780   12.512017   x
            x    C       281       35.094789    4.509378   12.516336   x
            x    C       282       33.755727    6.840258   12.509784   x
            x    C       283       35.096334    9.170819   12.506407   x
            x    C       284       31.068452   11.505668   12.510817   x
            x    C       285       49.868139   16.163059   12.524004   x
            x    C       286       57.917815   20.819549   12.516307   x
            x    C       287       63.292056   20.816955   12.516261   x
            x    C       288        2.754274   23.145673   12.517752   x
            x    C       289        1.406500   25.478070   12.508567   x
            x    C       290        2.752649   27.810231   12.506855   x
            x    C       291       63.289242   30.140310   12.529052   x
            x    C       292       17.552473   34.768251   12.536532   x
            x    C       293       33.750596    2.180059   12.520139   x
            x    C       294       39.122164    6.839926   12.513751   x
            x    C       295       25.681149    6.839367   12.563199   x
            x    C       296       37.780022    9.169294   12.501108   x
            x    C       297       49.867677   11.502347   12.526284   x
            x    C       298       47.182752   11.502049   12.521843   x
            x    C       299       41.808865   11.500091   12.506753   x
            x    C       300       39.123179   11.499190   12.501418   x
            x    C       301       33.754185   11.500755   12.511488   x
            x    C       302       25.680914   11.520567   12.516528   x
            x    C       303       51.211126   13.833248   12.521635   x
            x    C       304       53.894872   13.833008   12.522369   x
            x    C       305       45.839977   13.832165   12.519378   x
            x    C       306       43.154597   13.830723   12.515976   x
            x    C       307       29.718662   13.837234   12.530602   x
            x    C       308       55.237335   16.162615   12.516650   x
            x    C       309       47.184740   16.161939   12.532180   x
            x    C       310       51.211052   18.492779   12.533747   x
            x    C       311       53.893506   18.492338   12.521507   x
            x    C       312       45.842123   18.490908   12.553248   x
            x    C       313       59.263364   18.489608   12.514179   x
            x    C       314       61.948238   18.487777   12.520253   x
            x    C       315        1.408685   20.814491   12.523512   x
            x    C       316        6.793671   25.476475   12.521997   x
            x    C       317       57.915520   25.479252   12.542913   x
            x    C       318        5.443312   27.808852   12.506669   x
            x    C       319       17.562077   30.124478   12.526688   x
            x    C       320       14.870242   30.128726   12.526807   x
            x    C       321        9.479934   30.135486   12.512242   x
            x    C       322        6.789183   30.140395   12.507435   x
            x    C       323        1.405572   30.141525   12.513001   x
            x    C       324       57.916468   30.139010   12.578518   x
            x    C       325       18.911289   32.448359   12.527950   x
            x    C       326       21.606945   32.447808   12.528872   x
            x    C       327       13.513999   32.454516   12.528355   x
            x    C       328       10.822719   32.463964   12.524111   x
            x    C       329       61.945549   32.469844   12.550103   x
            x    C       330       22.967412   34.769233   12.536003   x
            x    C       331       14.858681   34.777814   12.538654   x
            x    C       332       18.905268   37.095865   12.559513   x
            x    C       333       21.615963   37.091758   12.545612   x
            x    C       334       13.500928   37.104739   12.545108   x
            x    C       335       27.022973   37.107932   12.526645   x
            x    C       336       29.713933   37.123048   12.519263   x
            x    C       337       14.845642    2.157085   12.569134   x
            x    C       338       21.616598    4.501201   12.623839   x
            x    C       339       37.778863    4.510988   12.524023   x
            x    C       340       41.806557    6.840220   12.528023   x
            x    C       341       22.970998    6.838994   12.612621   x
            x    C       342       51.211098    9.171073   12.545706   x
            x    C       343       53.895637    9.171369   12.551234   x
            x    C       344       45.837337    9.171119   12.531265   x
            x    C       345       43.151597    9.169818   12.520196   x
            x    C       346       55.238646   11.502320   12.537292   x
            x    C       347       59.265931   13.831262   12.536086   x
            x    C       348       37.780173   13.828754   12.507424   x
            x    C       349       35.094330   13.830531   12.515836   x
            x    C       350       27.024032   13.849791   12.550637   x
            x    C       351       57.920708   16.160966   12.519950   x
            x    C       352       41.810817   16.159883   12.529103   x
            x    C       353       63.294942   16.158206   12.540365   x
            x    C       354       39.124250   16.158070   12.525459   x
            x    C       355       43.157009   18.489397   12.557839   x
            x    C       356        2.755887   18.484241   12.549929   x
            x    C       357       47.186489   20.820548   12.580445   x
            x    C       358       53.892370   23.150731   12.555408   x
            x    C       359        5.444885   23.144710   12.530430   x
            x    C       360        9.485884   25.475818   12.529474   x
            x    C       361       55.233226   25.479723   12.568739   x
            x    C       362       18.914419   27.800849   12.534521   x
            x    C       363       21.604603   27.801581   12.536723   x
            x    C       364       13.524296   27.802499   12.526659   x
            x    C       365       10.832651   27.805837   12.520071   x
            x    C       366       22.955929   30.126569   12.534871   x
            x    C       367       27.005940   32.459079   12.541990   x
            x    C       368        5.438945   32.470108   12.512938   x
            x    C       369        2.751802   32.471710   12.518216   x
            x    C       370       59.261333   32.468747   12.576975   x
            x    C       371       25.663304   34.780754   12.534849   x
            x    C       372        9.469858   34.791989   12.534492   x
            x    C       373       31.053359   34.796532   12.537699   x
            x    C       374        6.782305   34.799088   12.533253   x
            x    C       375       10.810875   37.119780   12.551677   x
            x    C       376       35.090916   37.130400   12.544289   x
            x    C       377       22.974268    2.154914   12.591997   x
            x    C       378        9.461335    2.171086   12.586231   x
            x    C       379       39.121380    2.181471   12.559905   x
            x    C       380       49.866978    6.840006   12.568451   x
            x    C       381       47.181513    6.840329   12.562127   x
            x    C       382       59.269122    9.170734   12.569945   x
            x    C       383       57.923177   11.501551   12.545483   x
            x    C       384       61.950793   13.829602   12.548483   x
            x    C       385        1.410253   16.156172   12.558415   x
            x    C       386       33.747318   16.158434   12.532966   x
            x    C       387       31.057610   16.164205   12.550054   x
            x    C       388       37.778241   18.486581   12.547038   x
            x    C       389       55.234826   20.821589   12.528501   x
            x    C       390       41.812334   20.818493   12.589576   x
            x    C       391        6.792125   20.813386   12.566288   x
            x    C       392       17.566613   25.476775   12.553201   x
            x    C       393       14.875685   25.476231   12.550374   x
            x    C       394       26.996576   27.807419   12.551056   x
            x    C       395       25.649063   30.132256   12.541255   x
            x    C       396       29.699742   32.468452   12.545621   x
            x    C       397       33.743064   34.802483   12.551228   x
            x    C       398        1.406952   34.800608   12.537057   x
            x    C       399       63.292132   34.799312   12.553750   x
            x    C       400        5.436250   37.127228   12.555638   x
            x    C       401       17.552252    2.158706   12.627836   x
            x    C       402        6.778340    2.177137   12.592367   x
            x    C       403        1.409838    2.179951   12.576138   x
            x    C       404       18.908693    4.502092   12.648591   x
            x    C       405       13.488002    4.499318   12.616866   x
            x    C       406       45.837162    4.509642   12.588991   x
            x    C       407       43.151146    4.510767   12.569332   x
            x    C       408       55.239890    6.840345   12.576854   x
            x    C       409       57.924837    6.839915   12.581226   x
            x    C       410       61.954291    9.169376   12.580678   x
            x    C       411       21.619044    9.173911   12.667857   x
            x    C       412       63.297301   11.499288   12.575231   x
            x    C       413        2.755387   13.826780   12.596201   x
            x    C       414       25.665444   16.178442   12.603537   x
            x    C       415       35.089454   18.487487   12.547390   x
            x    C       416        5.443162   18.484229   12.578319   x
            x    C       417       29.703387   18.492532   12.570210   x
            x    C       418       49.869432   20.821885   12.563059   x
            x    C       419       39.124100   20.816730   12.583253   x
            x    C       420       33.738180   20.816908   12.567242   x
            x    C       421       51.211380   23.150899   12.581665   x
            x    C       422       45.843526   23.149900   12.622569   x
            x    C       423       13.526030   23.149779   12.584556   x
            x    C       424       10.834149   23.146195   12.568533   x
            x    C       425       22.954373   25.478859   12.555487   x
            x    C       426       25.646480   25.479975   12.556489   x
            x    C       427       29.690543   27.811189   12.562455   x
            x    C       428       53.891958   27.808655   12.609361   x
            x    C       429       31.042929   30.141087   12.564234   x
            x    C       430       35.085545   32.474134   12.586657   x
            x    C       431       57.919764   34.797888   12.603256   x
            x    C       432        2.752117   37.129881   12.555107   x
            x    C       433       37.777024   37.132158   12.571509   x
            x    C       434       61.949551   37.128702   12.574630   x
            x    C       435       41.807380    2.180940   12.590387   x
            x    C       436       63.296020    2.179499   12.581177   x
            x    C       437       55.238784    2.178088   12.618003   x
            x    C       438       57.923231    2.178071   12.601781   x
            x    C       439       10.799114    4.505232   12.633160   x
            x    C       440        2.754111    4.509639   12.602438   x
            x    C       441        5.435929    4.507191   12.620942   x
            x    C       442       59.268996    4.508956   12.593384   x
            x    C       443       61.953935    4.509966   12.590202   x
            x    C       444       51.211223    4.509084   12.603166   x
            x    C       445       53.895835    4.509283   12.599906   x
            x    C       446       63.299320    6.839619   12.592292   x
            x    C       447        1.411766    6.839219   12.605212   x
            x    C       448        2.755037    9.168192   12.623306   x
            x    C       449        1.411482   11.497959   12.597607   x
            x    C       450       22.974415   11.515013   12.665935   x
            x    C       451       27.009473   18.500122   12.596891   x
            x    C       452        9.482368   20.817251   12.596376   x
            x    C       453       31.045222   20.820824   12.571253   x
            x    C       454       22.959077   20.830491   12.617503   x
            x    C       455       25.652468   20.827079   12.597102   x
            x    C       456       43.157537   23.149169   12.628620   x
            x    C       457       35.083603   23.148724   12.594227   x
            x    C       458       37.776050   23.147787   12.607990   x
            x    C       459       26.998265   23.153185   12.574527   x
            x    C       460       29.691958   23.150924   12.572542   x
            x    C       461       18.916551   23.153960   12.594043   x
            x    C       462       21.606713   23.155009   12.586579   x
            x    C       463       31.038760   25.481403   12.577170   x
            x    C       464       33.732843   25.481224   12.597839   x
            x    C       465       35.081933   27.813392   12.614034   x
            x    C       466       33.735229   30.144773   12.587133   x
            x    C       467       55.234023   30.137852   12.614549   x
            x    C       468       59.265133   37.127557   12.595145   x
            x    C       469       49.867796    2.178307   12.638812   x
            x    C       470       47.182592    2.178969   12.635787   x
            x    C       471       17.557746    6.834380   12.704447   x
            x    C       472        6.777554    6.837850   12.666272   x
            x    C       473        5.436860    9.169018   12.662856   x
            x    C       474        5.439744   13.828089   12.638460   x
            x    C       475       21.619291   13.861134   12.686369   x
            x    C       476        6.786830   16.155844   12.634403   x
            x    C       477       22.969881   16.185889   12.653369   x
            x    C       478       21.610538   18.508301   12.660757   x
            x    C       479       17.565589   20.830552   12.650074   x
            x    C       480       14.873747   20.824974   12.649615   x
            x    C       481       49.870010   25.479557   12.628044   x
            x    C       482       39.122519   25.480242   12.645651   x
            x    C       483       37.774318   27.812598   12.644872   x
            x    C       484       37.774470   32.474439   12.625424   x
            x    C       485       53.893111   32.467321   12.647620   x
            x    C       486       39.121070   34.802901   12.622239   x
            x    C       487       55.236781   34.797037   12.634553   x
            x    C       488       53.894867   37.127065   12.643751   x
            x    C       489        9.457478    6.838862   12.687689   x
            x    C       490        6.781664   11.498223   12.683705   x
            x    C       491        9.474031   16.162435   12.685991   x
            x    C       492       10.826310   18.489931   12.665605   x
            x    C       493       18.915069   18.507651   12.695242   x
            x    C       494       41.811625   25.479829   12.662856   x
            x    C       495       39.121088   30.144033   12.663326   x
            x    C       496       41.808041   34.801304   12.663720   x
            x    C       497       43.152919   37.130415   12.646045   x
            x    C       498       51.210993   37.127261   12.665561   x
            x    C       499       18.913544    9.173115   12.749801   x
            x    C       500       10.802286    9.170909   12.733855   x
            x    C       501        9.465782   11.503829   12.728565   x
            x    C       502       13.517713   18.499826   12.700572   x
            x    C       503       51.210997   27.808669   12.644308   x
            x    C       504       43.156146   27.810789   12.693347   x
            x    C       505       41.809561   30.141859   12.696601   x
            x    C       506       45.838841   37.129044   12.669745   x
            x    C       507       14.850156    6.835572   12.746713   x
            x    C       508       13.490441    9.176979   12.754723   x
            x    C       509       10.815741   13.835124   12.741198   x
            x    C       510       17.556004   16.188911   12.752960   x
            x    C       511       47.187213   25.479767   12.653334   x
            x    C       512       45.842614   27.809459   12.693250   x
            x    C       513       43.154143   32.471569   12.704066   x
            x    C       514       49.867525   34.797575   12.692587   x
            x    C       515       13.503620   13.851091   12.777024   x
            x    C       516       18.909739   13.862671   12.759791   x
            x    C       517       14.862065   16.176841   12.760564   x
            x    C       518       45.840064   32.469849   12.716202   x
            x    C       519       51.210634   32.467494   12.683170   x
            x    C       520       47.183367   34.798998   12.705243   x
            x    C       521       14.846187   11.519702   12.787089   x
            x    C       522       17.553396   11.522278   12.802128   x
            x    C       523       47.185278   30.139595   12.708758   x
            x    C       524       49.868824   30.137819   12.686670   x
            xxxxxxxxxxxxxxxxxxxxxxxxxxxxxxxxxxxxxxxxxxxxxxxxxxxxxxxxxxxx
 

LBFGS: continuation file name is "graphite.continuation"
 LBFGS: Restarting previous  geometry optimization.
 avg_mass=  21682.529373681005
 Enthalpy contributions:
                  total energy=  -2.79821010E+003 Eh
        diagonal pressure term=   0.00000000E+000 Eh
    off-diagonal pressure term=   0.00000000E+000 Eh
 LBFGS: finished iteration   0  with enthalpy= -2.798210104476E+003 Eh
  
 +-----------+-----------------+-----------------+------------+-----+ <-- LBFGS
 | Parameter |      value      |    tolerance    |    units   | OK? | <-- LBFGS
 +-----------+-----------------+-----------------+------------+-----+ <-- LBFGS
 |  dE/ion   |   0.000000E+000 |   1.000000E-006 |         Eh | No  | <-- LBFGS
 |  |F|max   |   4.584650E-003 |   2.000000E-003 |    Eh/Bohr | No  | <-- LBFGS
 |  |dR|max  |   0.000000E+000 |   5.000000E-003 |       Bohr | No  | <-- LBFGS
 +-----------+-----------------+-----------------+------------+-----+ <-- LBFGS
  

================================================================================
 Starting LBFGS iteration    1 ...
================================================================================
 Writing xyz coordinates to file "graphite.xyz" ... done

 Writing continuation file "graphite.continuation" ...done
 Backing up NGWFs to file "graphite.tightbox_ngwfs.bfgs_back" ... done
 Backing up Hamiltonian to file "graphite.ham.bfgs_back" ... done
  
 +------------+-------------+-------------+-----------------+ <-- min LBFGS
 |    Step    |   lambda    |   F.delta   |    enthalpy     | <-- min LBFGS
 +------------+-------------+-------------+-----------------+ <-- min LBFGS
 |  previous  |    0.000000 |    0.001090 |    -2798.210104 | <-- min LBFGS
 +------------+-------------+-------------+-----------------+ <-- min LBFGS
  

--------------------------------------------------------------------------------
 LBFGS: starting iteration   1 with trial guess (lambda=    1.000000)
--------------------------------------------------------------------------------
 
                           -------------------------------
                                     Cell Contents
                           -------------------------------
 
            xxxxxxxxxxxxxxxxxxxxxxxxxxxxxxxxxxxxxxxxxxxxxxxxxxxxxxxxxxxx
            x  Element    Atom      Absolute co-ordinates of atoms     x
            x            Number        x           y           z       x
            x----------------------------------------------------------x
            x    Li        1       24.686380    4.330298   16.239740   x
            x    Li        2       20.306127    1.685861   16.290850   x
            x    Li        3       20.387279   11.840591   16.411958   x
            x    Li        4       20.345590    6.803510   16.748270   x
            x    Li        5       15.894162    9.304239   16.476887   x
            x    Li        6       15.022708    3.773104   16.584101   x
            x    Li        7       25.782706    9.969340   16.508876   x
            x    Li        8       22.916317    7.874119   20.704273   x
            x    Li        9       18.116845    5.374145   20.783587   x
            x    Li       10       22.780320    2.337635   21.520625   x
            x    Li       11       18.276103   10.902791   21.764470   x
            x    Li       12       20.774782    6.563168   26.599991   x
            x    C        13       32.358546    4.519836    6.352809   x
            x    C        14       29.670110    4.519777    6.371526   x
            x    C        15       36.393931    6.850058    6.338480   x
            x    C        16       33.705466    6.850088    6.345432   x
            x    C        17       40.429361    9.180222    6.336938   x
            x    C        18       37.740814    9.180364    6.335976   x
            x    C        19       32.358450    9.180333    6.355912   x
            x    C        20       41.776547   11.510489    6.338438   x
            x    C        21       36.394024   11.510435    6.341357   x
            x    C        22       44.465087   11.510334    6.339943   x
            x    C        23       45.812257   13.840438    6.343992   x
            x    C        24        0.072503   23.160023    6.330880   x
            x    C        25       61.954589   23.160311    6.333609   x
            x    C        26        4.108268   25.490015    6.329684   x
            x    C        27        1.419801   25.490159    6.328784   x
            x    C        28        8.143813   27.820039    6.331260   x
            x    C        29        5.455437   27.820235    6.329133   x
            x    C        30        0.072332   27.820339    6.333290   x
            x    C        31        9.491235   30.150073    6.333740   x
            x    C        32        4.107839   30.150313    6.333450   x
            x    C        33       12.179445   30.149809    6.337058   x
            x    C        34       13.526672   32.479562    6.348954   x
            x    C        35       36.394151    2.189725    6.362007   x
            x    C        36       33.705595    2.189625    6.356761   x
            x    C        37       28.322849    2.189463    6.376964   x
            x    C        38       25.634169    2.189241    6.398579   x
            x    C        39       40.429500    4.519890    6.361174   x
            x    C        40       37.740914    4.519769    6.350590   x
            x    C        41       41.776440    6.850143    6.349928   x
            x    C        42       44.465055    6.850135    6.359295   x
            x    C        43       28.322874    6.850135    6.392871   x
            x    C        44       45.812128    9.180288    6.348954   x
            x    C        45       48.500658    9.180246    6.355161   x
            x    C        46       29.669989    9.180609    6.383338   x
            x    C        47       33.705506   11.510668    6.353653   x
            x    C        48       49.847886   11.510378    6.347943   x
            x    C        49       52.536297   11.510231    6.352886   x
            x    C        50       40.429671   13.840419    6.345274   x
            x    C        51       37.741005   13.840597    6.349710   x
            x    C        52       48.500751   13.840288    6.343470   x
            x    C        53       53.883452   13.840323    6.347927   x
            x    C        54       44.465356   16.170410    6.355883   x
            x    C        55       49.847965   16.170479    6.348870   x
            x    C        56       52.536416   16.170383    6.345345   x
            x    C        57       61.954503   18.500231    6.344398   x
            x    C        58       56.571835   18.500275    6.342475   x
            x    C        59        4.108133   20.829775    6.354150   x
            x    C        60        1.419821   20.829990    6.343126   x
            x    C        61       60.607365   20.830280    6.336147   x
            x    C        62       57.919021   20.830356    6.342342   x
            x    C        63        8.143967   23.159806    6.355267   x
            x    C        64        5.455626   23.159840    6.343759   x
            x    C        65        9.491642   25.489955    6.343806   x
            x    C        66       12.179834   25.489831    6.352773   x
            x    C        67       60.607280   25.490322    6.341869   x
            x    C        68       13.527405   27.819758    6.343658   x
            x    C        69       16.215360   27.819580    6.351352   x
            x    C        70       61.954367   27.820361    6.344765   x
            x    C        71        1.419574   30.150455    6.339367   x
            x    C        72       17.562919   30.149269    6.351133   x
            x    C        73       20.250751   30.149117    6.359270   x
            x    C        74        8.143266   32.480227    6.342140   x
            x    C        75        5.454927   32.480351    6.344164   x
            x    C        76       16.214724   32.479104    6.354894   x
            x    C        77       21.598331   32.478798    6.366596   x
            x    C        78       12.178655   34.809575    6.367084   x
            x    C        79       17.562051   34.808776    6.378378   x
            x    C        80       20.250462   34.808584    6.380331   x
            x    C        81       29.669884   37.139027    6.369007   x
            x    C        82       24.286610   37.138660    6.391276   x
            x    C        83       24.286577    4.519585    6.430429   x
            x    C        84       49.847832    6.850270    6.377769   x
            x    C        85       25.634256    6.850179    6.429920   x
            x    C        86       53.883421    9.180330    6.370364   x
            x    C        87       28.322707   11.510763    6.407669   x
            x    C        88       32.358498   13.840498    6.372815   x
            x    C        89       56.571820   13.840290    6.352483   x
            x    C        90       41.776829   16.170545    6.360267   x
            x    C        91       36.394239   16.170428    6.369141   x
            x    C        92       60.607413   16.170198    6.352224   x
            x    C        93       57.919131   16.170315    6.346707   x
            x    C        94        0.072385   18.500077    6.352350   x
            x    C        95       45.812446   18.500562    6.374411   x
            x    C        96       48.500860   18.500498    6.365530   x
            x    C        97       53.883484   18.500502    6.348828   x
            x    C        98       56.571795   23.160380    6.356489   x
            x    C        99       17.563093   25.489815    6.372971   x
            x    C       100       57.918984   25.490441    6.360514   x
            x    C       101       21.598419   27.819483    6.371166   x
            x    C       102       60.607097   30.150310    6.365815   x
            x    C       103        0.072108   32.480367    6.357048   x
            x    C       104       24.286492   32.478908    6.370675   x
            x    C       105        9.490413   34.810069    6.363061   x
            x    C       106        4.107522   34.810367    6.363906   x
            x    C       107       28.322633   34.809099    6.373322   x
            x    C       108       25.634115   34.808733    6.375610   x
            x    C       109       32.358587   37.139484    6.366995   x
            x    C       110       13.525591   37.139258    6.403239   x
            x    C       111       16.213918   37.138899    6.409165   x
            x    C       112       21.597962   37.138547    6.402441   x
            x    C       113       17.561395    2.189108    6.448740   x
            x    C       114       41.776617    2.189866    6.395954   x
            x    C       115       20.250102    2.188989    6.439159   x
            x    C       116       21.597835    4.519440    6.460153   x
            x    C       117       45.812130    4.520165    6.389560   x
            x    C       118       48.500596    4.520290    6.399471   x
            x    C       119       52.536215    6.850361    6.384778   x
            x    C       120       24.286707    9.180511    6.463920   x
            x    C       121       56.571696    9.180395    6.379307   x
            x    C       122       57.918966   11.510411    6.369918   x
            x    C       123       25.634240   11.510983    6.449187   x
            x    C       124       29.669814   13.840923    6.398299   x
            x    C       125       61.954439   13.840313    6.373606   x
            x    C       126       33.705503   16.170598    6.379706   x
            x    C       127        1.419478   16.170156    6.379753   x
            x    C       128       40.429925   18.500413    6.384834   x
            x    C       129        5.455211   18.499954    6.387501   x
            x    C       130       49.847998   20.830567    6.382953   x
            x    C       131        9.491352   20.829923    6.390602   x
            x    C       132       52.536324   20.830407    6.366726   x
            x    C       133       53.883514   23.160435    6.377568   x
            x    C       134       13.527412   23.160046    6.383728   x
            x    C       135       16.215237   23.160086    6.395455   x
            x    C       136       20.250822   25.489810    6.382170   x
            x    C       137       56.571742   27.820336    6.389462   x
            x    C       138       24.286280   27.819522    6.381935   x
            x    C       139       25.633858   30.149252    6.378140   x
            x    C       140       57.918920   30.150302    6.391944   x
            x    C       141       61.954288   32.480255    6.372036   x
            x    C       142       29.669691   32.479343    6.384511   x
            x    C       143        1.419279   34.810314    6.370700   x
            x    C       144       33.705592   34.809457    6.388245   x
            x    C       145        8.142679   37.140087    6.390162   x
            x    C       146       37.741164   37.139544    6.393449   x
            x    C       147       12.177851    2.189631    6.440576   x
            x    C       148       44.465170    2.190176    6.413915   x
            x    C       149        9.489638    2.190024    6.429829   x
            x    C       150       53.883299    4.520341    6.408702   x
            x    C       151       57.918857    6.850400    6.399304   x
            x    C       152       60.607235   11.510398    6.382544   x
            x    C       153        0.072133   13.840288    6.390546   x
            x    C       154       28.322422   16.170728    6.418195   x
            x    C       155        4.107652   16.170094    6.402250   x
            x    C       156       37.741333   18.500431    6.389391   x
            x    C       157       32.358355   18.500381    6.401228   x
            x    C       158        8.143430   18.499934    6.412227   x
            x    C       159       44.465552   20.830390    6.406836   x
            x    C       160       12.179531   20.830132    6.410304   x
            x    C       161       41.777073   20.830320    6.413257   x
            x    C       162       21.598283   23.160184    6.409673   x
            x    C       163       25.633658   25.489877    6.401158   x
            x    C       164       28.322196   30.149640    6.389731   x
            x    C       165       32.358383   32.479699    6.397916   x
            x    C       166       60.607080   34.810222    6.395494   x
            x    C       167       36.394324   34.809752    6.407769   x
            x    C       168        5.454590   37.140228    6.387934   x
            x    C       169        0.071978   37.140212    6.393410   x
            x    C       170       40.429704   37.139782    6.416217   x
            x    C       171       49.847830    2.190381    6.433107   x
            x    C       172        4.107258    2.190395    6.413526   x
            x    C       173        1.419148    2.190344    6.410871   x
            x    C       174       52.536213    2.190421    6.431314   x
            x    C       175       60.607057    2.190423    6.413645   x
            x    C       176       57.918830    2.190309    6.419129   x
            x    C       177       16.213528    4.519311    6.491986   x
            x    C       178       13.524941    4.519548    6.488236   x
            x    C       179       56.571615    4.520412    6.410216   x
            x    C       180       61.954197    4.520332    6.416605   x
            x    C       181       60.607096    6.850376    6.408536   x
            x    C       182       20.250219    6.849830    6.502905   x
            x    C       183       61.954219    9.180398    6.404755   x
            x    C       184        0.071911    9.180525    6.421701   x
            x    C       185       21.598129    9.180625    6.506440   x
            x    C       186        1.419144   11.510481    6.420031   x
            x    C       187        5.454543   13.840331    6.443029   x
            x    C       188       24.286642   13.841264    6.471551   x
            x    C       189        9.490478   16.170441    6.462412   x
            x    C       190       25.634014   16.171205    6.447963   x
            x    C       191       29.669578   18.500544    6.413888   x
            x    C       192       13.526632   18.500694    6.461114   x
            x    C       193       24.286336   18.500970    6.448719   x
            x    C       194       17.562744   20.830650    6.436459   x
            x    C       195       36.394300   20.830175    6.414946   x
            x    C       196       33.705506   20.830281    6.415841   x
            x    C       197       20.250619   20.830656    6.438390   x
            x    C       198       28.322107   20.830342    6.421398   x
            x    C       199       25.633713   20.830529    6.428292   x
            x    C       200       48.500904   23.160320    6.420907   x
            x    C       201       45.812610   23.160332    6.437042   x
            x    C       202       24.286133   23.160213    6.413142   x
            x    C       203       29.669397   23.160116    6.421280   x
            x    C       204       28.321998   25.489959    6.411616   x
            x    C       205       52.536345   25.490354    6.414074   x
            x    C       206       29.669358   27.819802    6.409294   x
            x    C       207       32.358123   27.820034    6.426133   x
            x    C       208       53.883544   27.820346    6.422870   x
            x    C       209       33.705482   30.149873    6.425081   x
            x    C       210       37.741241   32.479876    6.445415   x
            x    C       211       56.571657   32.480228    6.420812   x
            x    C       212       41.776825   34.810029    6.460722   x
[...]
 C   490 -- C   491       -0.08      0.00      5.38604
 C   400 -- C   440       -0.08     -0.00      5.38621
 C   320 -- C   321       -0.08      0.00      5.38650
 C   452 -- C   480       -0.08      0.00      5.38664
 C   296 -- C   349       -0.08     -0.00      5.38670
 C   387 -- C   414       -0.08      0.00      5.38675
 C   339 -- C   376       -0.08     -0.00      5.38693
 C   372 -- C   402       -0.08     -0.00      5.38699
 C   414 -- C   450       -0.08      0.00      5.38719
 C   293 -- C   373       -0.08      0.00      5.38747
 C   426 -- C   463       -0.08     -0.00      5.38747
 C   301 -- C   387       -0.08     -0.00      5.38767
 C   489 -- C   507       -0.08      0.00      5.38803
 C   453 -- C   455       -0.08      0.00      5.38811
 C   395 -- C   429       -0.08      0.00      5.38812
 C   271 -- C   295       -0.08      0.00      5.38848
 C   282 -- C   284       -0.08     -0.00      5.38928
 C   472 -- C   501       -0.08     -0.00      5.38963
 C   378 -- C   472       -0.08     -0.00      5.38980
 C   280 -- C   282       -0.08     -0.00      5.38995
 C   292 -- C   337       -0.08     -0.00      5.39062
 C   302 -- C   477       -0.08     -0.00      5.39142
 C   423 -- C   461       -0.08      0.00      5.39195
 C   279 -- C   330       -0.08      0.00      5.39206
 C   362 -- C   364       -0.08      0.00      5.39211
 C   269 -- C   272       -0.08     -0.00      5.39225
 C   510 -- C   521       -0.08      0.00      5.39228
 C   459 -- C   462       -0.08      0.00      5.39285
 C   363 -- C   394       -0.08      0.00      5.39291
 C   338 -- C   499       -0.07     -0.00      5.39291
 C   439 -- C   508       -0.08     -0.00      5.39303
 C   270 -- C   273       -0.08     -0.00      5.39312
 C   405 -- C   500       -0.08      0.00      5.39357
 C   493 -- C   502       -0.08     -0.00      5.39362
 C   392 -- C   425       -0.08      0.00      5.39422
 C   325 -- C   327       -0.08     -0.00      5.39430
 C   326 -- C   367       -0.08     -0.00      5.39481
 C   451 -- C   478       -0.08     -0.00      5.39545
 C   454 -- C   479       -0.08      0.00      5.39563
 C   332 -- C   334       -0.08     -0.00      5.39566
 C   319 -- C   366       -0.08      0.00      5.39596
 C   404 -- C   411       -0.07     -0.00      5.39654
 C   350 -- C   475       -0.08     -0.00      5.39695
 C   401 -- C   507       -0.07     -0.00      5.39714
 C   295 -- C   450       -0.07     -0.00      5.39715
 C   515 -- C   516       -0.08      0.00      5.39808
 C   333 -- C   335       -0.08      0.00      5.39836
 C   500 -- C   515       -0.08     -0.00      5.40099
 C   270 -- C   335       -0.08     -0.00      5.40125
 C   341 -- C   471       -0.07     -0.00      5.40162
 C   272 -- C   350       -0.08     -0.00      5.40233
 C   334 -- C   439       -0.08     -0.00      5.40249
 C   295 -- C   377       -0.07     -0.00      5.40454
 C   507 -- C   522       -0.07     -0.00      5.40725
 C   337 -- C   471       -0.07     -0.00      5.40774
 C   279 -- C   341       -0.07      0.00      5.40803
 C   292 -- C   330       -0.08     -0.00      5.40810
 C   477 -- C   510       -0.08     -0.00      5.40818
 C   333 -- C   404       -0.07      0.00      5.40883
 C   332 -- C   338       -0.07     -0.00      5.40922
 C   302 -- C   341       -0.07     -0.00      5.40926
 C   411 -- C   516       -0.07      0.00      5.41050
 C   377 -- C   401       -0.07     -0.00      5.41068
 C   273 -- C   411       -0.07     -0.00      5.41074
 C   475 -- C   499       -0.07     -0.00      5.41084
 C   404 -- C   405       -0.07     -0.00      5.41113
 C   471 -- C   521       -0.07      0.00      5.41163
 C   269 -- C   338       -0.07     -0.00      5.41189
 C   450 -- C   522       -0.07     -0.00      5.41245
 C   499 -- C   508       -0.07     -0.00      5.41350
 Li    7 -- Li    8        0.18     -0.02      5.49611
 Li    5 -- Li    6        0.11     -0.01      5.51922
 Li    6 -- Li    9        0.18     -0.02      5.52288
 Li    2 -- Li    6        0.11     -0.01      5.56079
 Li    6 -- C   471       -0.06      0.00      5.59351
 Li    3 -- Li    7        0.11     -0.01      5.60466
 Li    6 -- C   404       -0.06      0.00      5.61768
 Li    9 -- Li   11        0.14     -0.02      5.63463
 Li    1 -- Li    7        0.10     -0.02      5.63984
 Li    8 -- Li   10        0.14     -0.01      5.64377
 Li    9 -- Li   10        0.14     -0.01      5.66579
=============================================================


============== Orbital energy and occupancy information for spin 1 =============

      Total number of orbitals:    2108
        Occupancy sum (kernel):    1038.897917847
   Occupancy sum (eigenvalues):    1038.897917847
                 HOMO-LUMO gap:       0.010152047 Eh
                 Mid-gap level:      -0.156743855 Eh

                        Orbital | Energy (Eh) | Occupancy
                            1    -1.955894929   1.0000000
                        .......   ...........   .........
                         1030    -0.188630550   0.9997047
                         1031    -0.188559711   0.9996988
                         1032    -0.188449789   0.9996897
                         1033    -0.188415220   0.9996868
                         1034    -0.187385612   0.9995858
                         1035    -0.187375926   0.9995848
                         1036    -0.180250040   0.9970538
                         1037    -0.171458796   0.9693510
                         1038    -0.171372294   0.9686441
                         1039    -0.161819879   0.6918958
                        ....... -- gap at 0K -- .........
                         1040    -0.151667831   0.1256146
                         1041    -0.151339685   0.1160093
                         1042    -0.143323694   0.0145252
                         1043    -0.140963643   0.0076820
                         1044    -0.139912506   0.0058166
                         1045    -0.134298628   0.0012745
                         1046    -0.133418241   0.0010057
                         1047    -0.132320081   0.0007391
                         1048    -0.127116926   0.0001815
                         1049    -0.125557521   0.0001185
                        .......   ...........   .........
                         2108     0.758966869   0.0000000

================================================================================

============== Orbital energy and occupancy information for spin 2 =============

      Total number of orbitals:    2108
        Occupancy sum (kernel):    1040.185934797
   Occupancy sum (eigenvalues):    1040.185934797
                 HOMO-LUMO gap:       0.000445311 Eh
                 Mid-gap level:      -0.151696423 Eh

                        Orbital | Energy (Eh) | Occupancy
                            1    -1.958917384   1.0000000
                        .......   ...........   .........
                         1032    -0.188455154   0.9996902
                         1033    -0.188420514   0.9996872
                         1034    -0.187390016   0.9995863
                         1035    -0.187379106   0.9995851
                         1036    -0.182451033   0.9983791
                         1037    -0.180213591   0.9970341
                         1038    -0.173758432   0.9828710
                         1039    -0.171464172   0.9693945
                         1040    -0.171356857   0.9685090
                         1041    -0.151919078   0.1333302
                        ....... -- gap at 0K -- .........
                         1042    -0.151473767   0.1197888
                         1043    -0.141519706   0.0089178
                         1044    -0.140018793   0.0059866
                         1045    -0.134733736   0.0014320
                         1046    -0.133683536   0.0010761
                         1047    -0.133014394   0.0008970
                         1048    -0.127129284   0.0001821
                         1049    -0.125631782   0.0001209
                         1050    -0.123671402   0.0000712
                         1051    -0.121326303   0.0000374
                        .......   ...........   .........
                         2108     0.758966897   0.0000000

================================================================================

===================== Writing canonical molecular orbitals =====================
    Spin 1
| Orbital  Energy (eV)  Norm     |
| HOMO-5   -5.09902197  1.000000 | 
| HOMO-4   -5.09875838  1.000000 | 
| HOMO-3   -4.90485316  1.000000 | 
| HOMO-2   -4.66563125  1.000000 | 
| HOMO-1   -4.66327740  1.000000 | 
| HOMO     -4.40334295  1.000000 | 
| LUMO     -4.12709169  1.000000 | 
| LUMO+1   -4.11816238  1.000000 | 
| LUMO+2   -3.90003616  1.000000 | 
| LUMO+3   -3.83581591  1.000000 | 
| LUMO+4   -3.80721302  1.000000 | 
| LUMO+5   -3.65445162  1.000000 | 
================================================================================

===================== Writing canonical molecular orbitals =====================
    Spin 2
| Orbital  Energy (eV)  Norm     |
| HOMO-5   -4.96474523  1.000000 | 
| HOMO-4   -4.90386133  1.000000 | 
| HOMO-3   -4.72820752  1.000000 | 
| HOMO-2   -4.66577753  1.000000 | 
| HOMO-1   -4.66285733  1.000000 | 
| HOMO     -4.13392846  1.000000 | 
| LUMO     -4.12181094  1.000000 | 
| LUMO+1   -3.85094716  1.000000 | 
| LUMO+2   -3.81010523  1.000000 | 
| LUMO+3   -3.66629152  1.000000 | 
| LUMO+4   -3.63771411  1.000000 | 
| LUMO+5   -3.61950584  1.000000 | 
================================================================================
 
=============== Density of States (DOS) calculation for UP spin ================
Writing "graphite_UP_DOS.txt" ... done
================================================================================
 
============== Density of States (DOS) calculation for DOWN spin ===============
Writing "graphite_DN_DOS.txt" ... done
================================================================================
 
Writing bands to file "graphite.val_bands" ... done

IS: Calculating electrolyte contribution to the atomic forces ...
================================================================================
 
***********************************************************
********** Summary of Forces (values in Eh/a) *************
*                                                         *
* ---------------------- Minimum ------------------------ *
* Atom:       125, |F|min =    0.00000553                 *
* Components:     Fx|min       Fy|min       Fz|min        *
*              -0.00000429  -0.00000334   0.00000100      *
*                                                         *
* ---------------------- Maximum ------------------------ *
* Atom:         8, |F|max =    0.00119601                 *
* Components:     Fx|max       Fy|max       Fz|max        *
*              -0.00115862  -0.00026388   0.00013562      *
*                                                         *
* ---------------- Root Mean Square Force --------------- *
*                  |F|rms =    0.00027513                 *
* Components:     Fx|rms       Fy|rms       Fz|rms        *
*               0.00018071   0.00016522   0.00012548      *
***********************************************************
 

                                                      hartree           kcal/mol
IS: NB: Energy of pure electrolyte:         -0.07829570777771         -49.131297

------------------------------ TIMING INFORMATION ------------------------------
AVERAGE TIME:   20589.580s on    128 proc(s)                                    
TOTAL TIME:     20589.586s on    128 proc(s)                                    
================= AVERAGE TIMINGS FROM ALL PROCS (CUMULATIVE) ==================
|| TAG                                    #calls    cpu time   %total  Gflops ||
|| linalg_invert_sym_matrix             :     4        0.00s   0.000%  ------ || (1 procs only)
|| density_fftbox_interp_mult_imbal     : 35000        0.00s   0.000%  ------ ||
|| sparse_set_to_garbage                :   452        0.01s   0.000%  ------ ||
|| onetep.F90 final imbalance           :     1        0.02s   0.000%  ------ ||
|| ngwfs_initialise_from_radial         :     1        0.04s   0.000%  ------ ||
|| vdwcorrection_calculate_forces       :    11        0.05s   0.000%  ------ ||
|| ewald_calculate_forces_realspace     :    11        0.05s   0.000%  ------ ||
|| vdwcorrection_calculate_energy       :    11        0.06s   0.000%  ------ ||
|| onetep.F90 main loop imbalance       :     1        0.16s   0.001%  ------ ||
|| basis_extract_function_from_box      :  2404        0.17s   0.001%  ------ ||
|| pseudopotentials_core_density        :    11        0.21s   0.001%  ------ ||
|| pseudopotentials_local_on_grid       :    11        0.21s   0.001%  ------ ||
|| parallel_prepare_fd_halos_alloc      : 54501        0.30s   0.001%  ------ ||
|| sparse_spam3toblacs_real_fast_imbal  :  3311        0.33s   0.002%  ------ ||
|| restart_hamiltonian_read             :    10        0.43s   0.002%  ------ ||
|| pseudopotentials_nonlocal_mat        :    62        0.49s   0.002%  ------ ||
|| parallel_prepare_fd_halos_request    : 54501        0.51s   0.002%  ------ ||
|| sparse_blacstospam3_real_fast_imbal  :  3254        1.01s   0.005%  ------ ||
|| pseudo_make_structure_factor         :    11        1.28s   0.006%  ------ ||
|| restart_hamiltonian_write            :    34        1.43s   0.007%  ------ ||
|| smeared_ion_generate_potential_PBC   :    11        1.52s   0.007%  ------ ||
|| sparse_spam3toblacs_real_fast_B2     : 423.8k       2.37s   0.012%  ------ ||
|| energy_and_force_init_cell           :     1        2.48s   0.012%  ------ ||
|| parallel_prepare_fd_halos_satisfy    : 54501        2.52s   0.012%  ------ ||
|| sparse_init                          :    11        3.11s   0.015%  ------ ||
|| eigenstates_calculate                :     1        3.91s   0.019%  ------ ||
|| ngwf_gradient_coeffs                 :    34        5.19s   0.025%  ------ ||
|| pseudo_local_calculate_forces        :    11        5.29s   0.026%  ------ ||
|| restart_kernel_write                 :    45        5.76s   0.028%  ------ ||
|| ewald_calculate_energy               :    11        5.80s   0.028%  ------ ||
|| integrals_grad_spam3                 :    11        6.78s   0.033%  ------ ||
|| nonsc_forces_ngwfs_calc              :    11        6.79s   0.033%  ------ ||
|| density_init_guess_real              :    11        6.94s   0.034%  ------ ||
|| pseudo_nlcc_calculate_forces         :    11        8.39s   0.041%  ------ ||
|| sparse_embed_hotelling_invert_embed  :    62        9.48s   0.046%  ------ ||
|| projectors_func_grad_ovlp_box_spam3  :    33        9.83s   0.048%  ------ ||
|| pseudo_nl_calculate_forces           :    11       10.93s   0.053%  ------ ||
|| restart_ngwfs_tightbox_input         :    10       14.43s   0.070%  ------ ||
|| projectors_func_ovlp_box_spam3       :    62       17.37s   0.084%  ------ ||
|| fourier_filter_cell                  :   664       17.44s   0.085% 212.106 ||
|| ewald_calculate_forces_recipspace    :    11       19.09s   0.093%  ------ ||
|| ewald_calculate_forces               :    11       19.22s   0.093%  ------ ||
|| boltzmann_init_steric_pot            :    11       19.25s   0.094%  ------ ||
|| sparse_trace                         : 12280       20.75s   0.101%  ------ ||
|| parallel_prepare_fd_halos_clear      : 54501       22.05s   0.107%  ------ ||
|| parallel_prepare_fd_halos_comms_imbal: 54501       22.10s   0.107%  ------ ||
|| projectors_init_fftbox_recip         :   231       22.39s   0.109%  ------ ||
|| properties_calculate                 :     1       26.39s   0.128%  ------ ||
|| fourier_apply_box_pair               :  2844       27.11s   0.132%  1.694k ||
|| parallel_prepare_fd_halos_comms_wait : 54501       37.00s   0.180%  ------ ||
|| basis_copy_function_to_box           : 40644       37.22s   0.181%  ------ ||
|| function_ops_brappd_ketppd_spam3     :   113       42.46s   0.206%  ------ ||
|| integrals_kinetic_spam3              :    62       61.34s   0.298%  ------ ||
|| projectors_gradient_batch            :   136       64.15s   0.312%  ------ ||
|| fourier_interpolate_cell             :  1750       72.62s   0.353% 134.270 ||
|| sparse_product                       :  6926       78.22s   0.380%  ------ ||
|| parallel_prepare_fd_halos            : 54501       84.79s   0.412%  ------ ||
|| sparse_spam3toblacs_real_fast_B1     : 423.8k     115.50s   0.561%  ------ ||
|| fourier_apply_cell_backward          :  7187      115.86s   0.563% 174.449 ||
|| basis_dot_function_with_box          : 6.408M     117.79s   0.572%  ------ ||
|| sparse_spam3toblacs_real_fast        :  3311      123.20s   0.598%  ------ ||
|| cell_grid_extract_box_real           : 13280      160.25s   0.778%  ------ ||
|| restart_ngwfs_tightbox_output        :    25      195.96s   0.952%  ------ ||
|| sparse_blacstospam3_real_fast        :  3254      206.74s   1.004%  ------ ||
|| fourier_apply_cell_forward           :  7143      239.05s   1.161%  84.030 ||
|| finite_difference_derivative         : 54501      258.47s   1.255%  ------ ||
|| xc_energy_potential                  :   886      260.95s   1.267%  ------ ||
|| cell_grid_deposit_box_real           : 35590      365.09s   1.773%  ------ ||
|| ngwf_gradient_build_batch            :   136      371.84s   1.806%  ------ ||
|| basis_add_function_to_box            : 20.47M     391.03s   1.899%  ------ ||
|| hamiltonian_energy_components        :    13      411.66s   1.999%  ------ ||
|| dense_eigensolve                     :  1578      440.70s   2.140%  ------ ||
|| implicit_solvent_boltzmann_forces    :    11      513.16s   2.492%  ------ ||
|| edft_diag_ngwf_ham                   :  1576      556.09s   2.701%  ------ ||
|| ngwf_gradient_batch                  :   136      624.18s   3.032%  ------ ||
|| integrals_locpot_mat_els_batch       :  1192      636.36s   3.091%  ------ ||
|| ngwf_gradient_lnv                    :    34      657.87s   3.195%  ------ ||
|| edft_apply_smearing_operator         :   788      847.38s   4.116%  ------ ||
|| smeared_ion_force_correction         :    22     1013.97s   4.925%  ------ ||
|| implicit_solvent_soft_sphere_forces  :    11     1065.40s   5.174%  ------ ||
|| density_batch_row_sums               :  3500     1208.70s   5.870%  ------ ||
|| density_fftbox_deposit_to_cell       : 35000     1500.41s   7.287%  ------ ||
|| potential_apply_to_ngwf_batch        :  1192     2091.24s  10.157%  ------ ||
|| dl_mg_solver_calls                   :   875     2531.73s  12.296%  ------ ||
|| multigrid_calculate_hartree          :   875     2625.11s  12.750%  ------ ||
|| integrals_locpot_dbl_grid            :   596     2730.88s  13.263%  ------ ||
|| forces_calculate                     :    11     2746.42s  13.339%  ------ ||
|| fourier_apply_box                    : 86709     3138.17s  15.242%  2.169k ||
|| density_fftbox_interpolate_multiply  : 35000     3809.84s  18.504%  ------ ||
|| density_batch_interp_deposit         :  3500     6797.27s  33.013%  ------ ||
|| density_on_dbl_grid                  :  1750     8445.41s  41.018%  ------ ||
|| hamiltonian_lhxc_calculate           :   851    11321.20s  54.985%  ------ ||
|| edft_calculate                       :    34    14243.26s  69.177%  ------ ||
|| ngwf_cg_optimise                     :    11    16033.44s  77.872%  ------ ||
|| energy_and_forces                    :    11    20531.53s  99.718%  ------ ||
|| total_time                           :     1    20589.58s 100.000%  ------ ||
================================================================================
Overhead of generating timer report: 
- 0 ms averaging over threads,
- 12 ms ensuring consistency across MPI ranks,
- 44 ms printing in order.

Job completed: 23-10-2023 15:27 (+0100)

