1151      
Geometry optimisation iteration:    11 | Lattice="34.1692 0.0000 0.0000  0.0000 39.4552 0.0000  0.0000 0.0000 100.0000"
C    22.108197    1.164484    3.354372
C    26.379622    1.164406    3.344806
C    30.651059    1.164272    3.343531
C     6.448455    1.164270    3.343367
C    10.719256    1.164470    3.347485
C     2.177447    1.164260    3.344084
C    14.990108    1.164437    3.357433
C    19.260983    1.164660    3.359634
C    23.532085    1.164323    3.350196
C    27.803491    1.164456    3.343149
C    32.075051    1.164206    3.343466
C     0.753486    1.164250    3.344461
C     5.024642    1.164349    3.344178
C     9.295501    1.164374    3.345896
C    13.566351    1.164500    3.355158
C    17.837283    1.164522    3.360895
C    15.701752    2.397175    3.354459
C    19.972699    2.397533    3.353063
C    24.243885    2.397189    3.342847
C     4.313084    2.397643    3.337759
C    28.515324    2.397628    3.337370
C     0.041689    2.397495    3.337936
C     8.583916    2.397329    3.339521
C    12.854645    2.397392    3.348044
C    17.125543    2.397240    3.355487
C    21.396484    2.397460    3.349950
C    25.667812    2.397367    3.339853
C    29.939248    2.397603    3.336713
C    32.786901    2.397474    3.338090
C     2.889188    2.397577    3.338321
C     7.160089    2.397326    3.338886
C    11.430891    2.397369    3.345175
C    13.566278    3.630104    3.352848
C    17.837307    3.630099    3.359638
C     2.177353    3.630862    3.332422
C    22.108410    3.630272    3.349323
C    26.379655    3.630565    3.336550
C     6.448509    3.630596    3.335373
C    10.719293    3.630339    3.344009
C    14.990032    3.629934    3.356351
C    19.261115    3.630171    3.357131
C    23.532277    3.630048    3.343835
C    27.803514    3.630794    3.333448
C    30.651079    3.630733    3.331864
C     0.753384    3.630823    3.332700
C     5.024670    3.630706    3.334401
C    32.075031    3.630853    3.331384
C     9.295530    3.630216    3.340695
C     0.041508    4.863924    3.326763
C    11.430816    4.862847    3.354436
C    15.701834    4.862380    3.370089
C    19.973063    4.862863    3.366908
C    24.244158    4.862920    3.345821
C     4.312861    4.863832    3.331070
C     8.583821    4.863109    3.342093
C    12.854575    4.862790    3.360265
C    17.125594    4.862317    3.371267
C    21.396956    4.862787    3.360346
C    25.667977    4.863217    3.339229
C    28.515341    4.863741    3.330667
C    29.939245    4.863866    3.328249
C    32.786826    4.863796    3.326905
C     2.888914    4.863738    3.329422
C     7.160028    4.863134    3.337868
C     9.295155    6.095312    3.355596
C    13.566140    6.094867    3.380773
C    17.837531    6.094696    3.389700
C    22.108801    6.095277    3.371581
C    32.074999    6.096734    3.323940
C     2.177143    6.096673    3.326251
C     6.448177    6.096080    3.339481
C    10.718958    6.095409    3.364077
C    14.989905    6.094654    3.386292
C    19.261444    6.094840    3.386686
C    23.532690    6.095291    3.360349
C    26.379814    6.096104    3.341329
C    27.803675    6.096438    3.333527
C    30.651131    6.096514    3.326308
C     0.753205    6.096632    3.324800
C     5.024309    6.096166    3.334274
C     7.159374    7.328139    3.353526
C    11.430240    7.327371    3.387422
C    15.701717    7.326681    3.409126
C    19.973275    7.327221    3.404674
C    29.939570    7.329239    3.328544
C     0.041404    7.329536    3.323068
C     4.312491    7.329159    3.334716
C     8.583143    7.328047    3.364645
C    12.854102    7.327303    3.396788
C    17.125564    7.326702    3.410515
C    21.397350    7.327427    3.395662
C    25.668362    7.328423    3.356089
C    24.244437    7.327948    3.370120
C    28.515538    7.329113    3.335048
C    32.786828    7.329414    3.323142
C     2.888558    7.329096    3.329334
C     5.023636    8.561493    3.347899
C     9.294219    8.560172    3.389162
C    13.565621    8.559499    3.420668
C    17.837452    8.559255    3.429197
C    27.804235    8.561705    3.348032
C    32.075251    8.562385    3.325350
C     2.176795    8.562223    3.329837
C     6.447382    8.561353    3.360453
C    10.718040    8.560036    3.401641
C    23.533179    8.560361    3.394925
C    14.989445    8.559340    3.425644
C    19.261492    8.559569    3.425186
C    22.109049    8.560034    3.409402
C    26.380163    8.561363    3.362897
C    30.651412    8.562040    3.330155
C     0.752928    8.562189    3.326256
C     7.158368    9.793746    3.383519
C    11.429406    9.792589    3.424686
C    15.701316    9.792164    3.440341
C    25.669021    9.793947    3.385562
C    29.940033    9.794921    3.340280
C     0.041286    9.795604    3.328882
C     4.311746    9.794911    3.352093
C    21.397574    9.792840    3.428592
C     8.582105    9.793346    3.399499
C    12.853250    9.792400    3.432621
C    17.125209    9.792244    3.441300
C    19.973327    9.792463    3.436077
C    24.244916    9.793369    3.403143
C    28.516022    9.794694    3.352550
C    32.786847    9.795421    3.329301
C     2.887963    9.794836    3.340548
C     5.022741   11.027493    3.373397
C     9.293422   11.025974    3.422601
C    13.565020   11.025573    3.443438
C    23.533674   11.026298    3.421893
C    27.804785   11.027459    3.372913
C    19.261394   11.025827    3.443138
C    32.075257   11.028539    3.337758
C     2.176184   11.028314    3.344746
C     6.446366   11.027222    3.390657
C    10.717192   11.025625    3.432708
C    14.988786   11.025491    3.444405
C    17.837267   11.025501    3.444616
C    22.109447   11.025815    3.433635
C    26.380848   11.027126    3.391329
C    30.651609   11.028108    3.345362
C     0.752625   11.028353    3.337760
C    32.786676   12.261424    3.344340
C     2.887400   12.260778    3.362696
C     7.157597   12.259722    3.414037
C    21.397687   12.259291    3.436325
C    11.428919   12.258933    3.441306
C    17.124781   12.259129    3.437975
C    25.669637   12.259998    3.410047
C    29.940009   12.260812    3.361664
C     0.040929   12.261629    3.343716
C     4.310791   12.260753    3.378686
C     8.581300   12.259118    3.427816
C    12.852678   12.258659    3.442352
C    15.701024   12.258926    3.439040
C    19.973481   12.258845    3.438047
C    24.245541   12.259298    3.422902
C    28.516489   12.260521    3.377398
C    30.651678   13.493684    3.366639
C     0.752385   13.493916    3.356841
C    19.261077   13.492610    3.420496
C     5.022028   13.493118    3.401243
C     9.292822   13.492148    3.436139
C    23.533853   13.492553    3.424825
C    27.805152   13.493330    3.396406
C    32.074921   13.494068    3.356073
C     2.175596   13.493875    3.367183
C     6.445558   13.492738    3.417082
C    10.716717   13.491767    3.437213
C    13.564798   13.492263    3.430028
C    17.837092   13.492173    3.419146
C    22.109657   13.491977    3.425911
C    14.988426   13.492206    3.424196
C    26.381433   13.492872    3.410673
C    17.124533   14.725726    3.391551
C    28.516946   14.726157    3.398724
C    32.786645   14.726592    3.364142
C     2.886947   14.726151    3.387045
C     7.156823   14.725525    3.429665
C    21.397436   14.725734    3.407002
C    25.669840   14.725957    3.417179
C    29.940273   14.726342    3.384404
C     0.040512   14.726674    3.364690
C     4.310153   14.726073    3.403935
C     8.580701   14.724884    3.433571
C    11.428639   14.725383    3.424133
C    12.852536   14.725137    3.414815
C    15.700840   14.725399    3.395202
C    19.973112   14.725180    3.398480
C    24.245690   14.725164    3.418453
C    26.381538   15.958832    3.414941
C    30.652163   15.959269    3.385814
C     0.752103   15.959226    3.376946
C     5.021395   15.958910    3.419773
C    14.988520   15.958626    3.368742
C    19.260728   15.959083    3.365013
C    23.533877   15.958842    3.404229
C    27.805499   15.959189    3.409130
C    32.075233   15.959453    3.374785
C     2.175037   15.959138    3.388408
C     6.444956   15.958594    3.428409
C     9.292258   15.958403    3.426411
C    10.716584   15.958033    3.414429
C    13.564654   15.958693    3.382460
C    17.836484   15.958550    3.359122
C    22.109321   15.958303    3.391561
C    24.245544   17.191732    3.400794
C    28.517324   17.192272    3.409088
C    32.786979   17.192528    3.378431
C     2.886407   17.192148    3.404517
C    12.852710   17.191739    3.366733
C    17.124273   17.192286    3.330623
C    21.397218   17.192374    3.363719
C    25.670087   17.192425    3.412066
C    29.940871   17.192365    3.398600
C     0.040559   17.192542    3.379633
C     4.309519   17.192156    3.418912
C     8.580467   17.191501    3.425063
C     7.156233   17.192064    3.431099
C    11.428361   17.191954    3.388317
C    15.700295   17.192138    3.335375
C    19.972520   17.191896    3.344866
C    22.108815   18.425328    3.360213
C    26.381730   18.425521    3.411911
C    30.652507   18.425675    3.394599
C     0.752142   18.425766    3.386671
C    10.716698   18.425076    3.385833
C    14.988492   18.425629    3.320124
C    19.260483   18.425936    3.319263
C    23.533791   18.425737    3.383176
C    27.805944   18.425836    3.412030
C     6.444639   18.425464    3.430312
C    32.075523   18.425848    3.383567
C     2.174772   18.425660    3.399553
C     5.020806   18.425716    3.426926
C     9.292124   18.425322    3.410194
C    13.564234   18.425805    3.336292
C    17.835989   18.425653    3.310489
C    24.245253   19.658720    3.390080
C    28.517545   19.658936    3.409714
C    32.787042   19.659118    3.381086
C     8.580716   19.658687    3.416046
C    12.852645   19.658967    3.334651
C    17.124353   19.659272    3.299187
C    21.396885   19.659365    3.341837
C     4.309246   19.659063    3.422547
C    25.670226   19.659144    3.406674
C    29.941027   19.659052    3.400258
C     0.040402   19.659145    3.382528
C     2.886199   19.659040    3.409013
C     7.156139   19.658987    3.429145
C    11.428282   19.658990    3.362105
C    15.700005   19.659287    3.301836
C    19.971962   19.659055    3.319030
C     9.999211    4.856567    6.656845
C     7.152091    4.858922    6.645608
C     7.862691    6.088871    6.657198
C     9.285840    6.087849    6.664220
C    27.101541   14.717772    6.728586
C    24.258571   14.713798    6.727955
C    24.970736   15.948420    6.723935
C    26.393911   15.950954    6.730018
C     7.864707    3.626822    6.644105
C     9.287908    3.626799    6.647078
C    11.420145    7.315623    6.699628
C     9.996662    7.316926    6.687474
C     7.149835    7.320880    6.663229
C     7.859830    8.550584    6.689150
C     9.283264    8.548159    6.703765
C    24.966385   13.480207    6.740438
C    26.389595   13.483116    6.729904
C    28.527518   17.186365    6.727784
C    27.105336   17.185100    6.729102
C    24.264596   17.182513    6.705611
C    24.974436   18.417263    6.712091
C    26.397575   18.419987    6.727784
C     7.865090    1.164161    6.650755
C     9.288242    1.164554    6.651355
C    12.135873    1.165008    6.657886
C     5.018149    1.163793    6.650051
C    33.493601    1.162788    6.651667
C     3.595024    1.163460    6.651087
C    16.408591    1.164678    6.666985
C     0.747735    1.162887    6.650891
C    13.559424    1.164781    6.661091
C    17.832084    1.164750    6.665914
C    20.681038    1.164237    6.662038
C    29.222785    1.162820    6.649420
C    30.646031    1.162695    6.649225
C    24.952213    1.163725    6.651976
C    22.104317    1.163969    6.658311
C    26.375262    1.163442    6.650424
C    10.000467    2.395419    6.649233
C     7.153127    2.395873    6.644962
C     5.730094    2.395929    6.645138
C    14.272075    2.394665    6.659106
C     2.883080    2.395998    6.644866
C    11.423627    2.395615    6.652164
C    31.358233    2.395570    6.645082
C     1.459825    2.395951    6.646054
C    18.544918    2.394919    6.662005
C    32.781441    2.395669    6.645557
C    15.695554    2.394602    6.661485
C    22.816820    2.395296    6.652706
C    27.087527    2.395793    6.644830
C    19.968200    2.394722    6.658943
C    28.510590    2.395796    6.643431
C    24.239842    2.395448    6.649195
C    12.135890    3.625609    6.656348
C    33.493678    3.628689    6.640291
C     3.594836    3.628687    6.641910
C    16.408543    3.625003    6.667919
C    20.681306    3.625626    6.662411
C    30.646421    3.628913    6.640142
C     0.747655    3.628577    6.640747
C     5.017870    3.628432    6.641158
C    13.559590    3.625111    6.660161
C    17.831870    3.624831    6.667950
C    29.223009    3.628550    6.640227
C    24.952672    3.627895    6.647258
C    22.104442    3.625649    6.656214
C    26.375623    3.627912    6.642527
C    27.088463    4.860511    6.641268
C    31.358551    4.861367    6.635867
C     1.459569    4.861211    6.637043
C    14.272019    4.854887    6.675930
C    18.545432    4.855083    6.680570
C    22.817942    4.857396    6.660931
C    28.511682    4.860923    6.638014
C    32.781912    4.861668    6.634216
C     2.882599    4.860882    6.638275
C    11.422794    4.856178    6.661586
C    15.695852    4.854433    6.678818
C    19.968970    4.855045    6.676135
C    24.241213    4.858030    6.652519
C     5.729053    4.859708    6.642473
C    24.954430    6.090366    6.658568
C    29.224040    6.093166    6.637182
C    33.493987    6.093835    6.633855
C    16.409298    6.084341    6.699287
C    20.683343    6.085967    6.690277
C    26.377712    6.091435    6.648946
C    30.647502    6.093889    6.633527
C     0.747712    6.093566    6.633701
C    17.832968    6.083961    6.698358
C    22.106506    6.086439    6.680639
C     3.593747    6.092716    6.638908
C    12.134525    6.085325    6.682479
C    13.558433    6.084336    6.691377
C     5.016569    6.091885    6.642848
C    24.244288    7.319879    6.680921
C    22.820734    7.318490    6.696516
C    27.090571    7.323758    6.653618
C    31.359512    7.326013    6.632365
C    18.547778    7.314042    6.721587
C    28.513867    7.324668    6.643249
C    32.782675    7.326313    6.632302
C    15.694982    7.313049    6.722376
C    19.971660    7.314800    6.715406
C     1.458996    7.325378    6.633794
C    14.270593    7.314046    6.716773
C     2.881690    7.324921    6.637847
C     5.726970    7.322561    6.653098
C    24.957383    8.552485    6.691959
C    29.226243    8.557148    6.646983
C    22.110780    8.547316    6.724161
C    26.381327    8.554041    6.672889
C    20.686882    8.545656    6.735756
C    33.493875    8.558177    6.633444
C    16.408806    8.542360    6.744435
C    30.649492    8.557905    6.637700
C    17.834289    8.542173    6.744850
C     3.591994    8.556134    6.649114
C     0.747404    8.558062    6.633572
C    13.555114    8.543449    6.734616
C    12.131127    8.544991    6.731539
C     5.014296    8.555123    6.658194
C    27.093990    9.787180    6.679306
C    24.248944    9.782014    6.719419
C    22.824752    9.779672    6.736565
C    28.517286    9.788214    6.662301
C    18.552146    9.770088    6.755627
C    31.360620    9.790611    6.642047
C    19.975528    9.774502    6.754947
C    32.783286    9.790935    6.637783
C    15.690826    9.768901    6.753592
C     1.457630    9.789476    6.642638
C    14.267058    9.773990    6.754345
C     2.879754    9.789285    6.651898
C     5.723941    9.785487    6.679459
C     9.993551    9.778167    6.733980
C    11.416956    9.775855    6.750078
C     7.146355    9.783035    6.699005
C    24.961925   11.015481    6.727887
C    26.385901   11.017527    6.705151
C    29.228749   11.022013    6.666863
C    22.115082   11.010220    6.753188
C    16.406070   11.001318    6.746844
C    20.691285   11.006543    6.759080
C    33.493607   11.023065    6.644484
C    17.837558   11.000990    6.739494
C    30.651639   11.022633    6.654169
C     0.746439   11.022818    6.647203
C     3.589677   11.020284    6.668285
C    12.128837   11.006824    6.767525
C    13.552271   11.005082    6.766054
C     7.855673   11.013449    6.729317
C     5.011168   11.018957    6.685108
C     9.278547   11.008696    6.747813
C    27.097591   12.251754    6.711338
C    24.253875   12.246634    6.747938
C    22.830478   12.242032    6.754226
C    31.361872   12.255788    6.660774
C    19.981168   12.237130    6.741344
C    28.520447   12.252883    6.689141
C    14.263133   12.238629    6.751075
C    18.553116   12.237670    6.721312
C     1.456626   12.253980    6.660691
C    15.691048   12.237027    6.730639
C    32.784210   12.255717    6.652631
C     5.720480   12.249929    6.713957
C     9.988659   12.240398    6.763712
C     2.877550   12.253875    6.671709
C    11.412949   12.237644    6.759234
C     7.142336   12.246496    6.737307
C    29.231664   13.487029    6.693900
C    16.407112   13.472908    6.684165
C    20.695578   13.473114    6.707490
C    33.494241   13.487611    6.662178
C     3.587175   13.485181    6.694783
C    13.554168   13.474167    6.719594
C    17.836029   13.473484    6.684178
C    22.122101   13.475898    6.730503
C    30.653639   13.487206    6.677875
C     0.745980   13.487386    6.667128
C    12.125774   13.474782    6.727880
C     7.850759   13.478885    6.752454
C     5.007616   13.483584    6.717135
C     9.273381   13.473165    6.753004
C     9.985654   14.708977    6.719710
C    14.265448   14.714067    6.659185
C    18.550414   14.712357    6.654113
C    31.364050   14.720435    6.683109
C     1.455368   14.719063    6.682797
C     5.716499   14.715783    6.735541
C    11.412248   14.711659    6.680299
C    15.691701   14.712226    6.656275
C    19.979321   14.709559    6.655971
C    28.523680   14.718795    6.714622
C    32.785431   14.720068    6.672963
C     2.874912   14.719132    6.696164
C     7.137748   14.712066    6.743948
C    22.838065   14.709183    6.714410
C     7.846001   15.945979    6.734291
C    12.128661   15.949445    6.655840
C    16.410265   15.947288    6.615944
C    33.494029   15.952865    6.683122
C     3.584196   15.951643    6.717798
C     9.266768   15.942254    6.706852
C    13.552165   15.949488    6.645295
C    17.836466   15.945017    6.584425
C     0.744744   15.952832    6.687533
C     5.004020   15.950319    6.733235
C    20.695519   15.943527    6.624893
C    29.235427   15.953058    6.716889
C    30.656864   15.953053    6.700774
C    22.124685   15.943230    6.661810
C     7.133332   17.180810    6.734994
C     5.712120   17.184060    6.739924
C     9.981720   17.176779    6.658945
C    14.268270   17.184664    6.604410
C     1.453755   17.186085    6.700591
C    11.411299   17.179192    6.646913
C    15.695688   17.183504    6.569717
C    32.786672   17.186690    6.690735
C     2.872430   17.186162    6.716508
C    18.549338   17.182713    6.554837
C    31.365818   17.187039    6.700297
C    19.979405   17.183375    6.568011
C    22.841185   17.180553    6.663965
C     7.840477   18.415937    6.726113
C    12.124999   18.418491    6.616691
C     5.001682   18.419141    6.741040
C     9.263879   18.413333    6.698177
C     3.581766   18.420292    6.731218
C    16.409525   18.418480    6.560601
C    33.494113   18.420683    6.693971
C    13.554826   18.419011    6.581495
C     0.743863   18.420623    6.698304
C    20.693354   18.416627    6.583200
C    17.838209   18.415935    6.523677
C    30.659204   18.421345    6.712257
C    29.238458   18.420949    6.729950
C    22.122382   18.418816    6.636970
C     9.980049   19.651571    6.704416
C     7.129992   19.652463    6.740981
C     5.709634   19.654188    6.751245
C    11.409325   19.653440    6.643397
C     1.452927   19.655102    6.707190
C    14.268630   19.658474    6.583556
C     2.870686   19.655181    6.725006
C    15.699591   19.655977    6.565420
C    32.787293   19.655430    6.695535
C    18.551377   19.653802    6.561428
C    31.366942   19.655722    6.704407
C    19.979069   19.656026    6.592487
C    22.839491   19.655814    6.643497
C    27.108092   19.653591    6.729766
C    28.530036   19.655401    6.734780
C    24.266377   19.651522    6.684274
C    22.108320   20.892258    3.353991
C    26.381706   20.892010    3.410449
C    30.652526   20.892044    3.390065
C     6.444715   20.892184    3.430087
C    10.716900   20.892214    3.374512
C     2.174487   20.892173    3.396940
C    14.988428   20.892392    3.301541
C    19.260439   20.892580    3.308771
C    23.533476   20.892235    3.378884
C    27.806023   20.892328    3.410498
C    32.075281   20.892219    3.378953
C     0.752021   20.892202    3.382839
C     5.020788   20.892265    3.426517
C     9.292229   20.892147    3.403479
C    13.564130   20.892529    3.317500
C    17.835854   20.892510    3.297826
C    15.699893   22.125457    3.297070
C    19.971832   22.125622    3.322102
C    24.244942   22.125066    3.393014
C     4.309217   22.125252    3.417799
C    28.517468   22.125187    3.404604
C     0.040161   22.125097    3.371210
C     8.580855   22.125247    3.417493
C    12.852770   22.125672    3.331387
C    17.124341   22.125393    3.297146
C    21.396800   22.125580    3.345828
C    25.670015   22.125069    3.407299
C    29.940879   22.125150    3.391438
C    32.786868   22.125132    3.369279
C     2.886201   22.125098    3.401730
C     7.156075   22.125215    3.429336
C    11.428453   22.125446    3.361474
C    13.564393   23.358671    3.326699
C    17.835869   23.358485    3.305729
C     2.174554   23.358004    3.385098
C    22.108378   23.358719    3.366522
C    26.381491   23.358297    3.411203
C     6.444612   23.358423    3.430412
C    10.717153   23.358632    3.388499
C    14.988611   23.358526    3.307921
C    19.260453   23.358375    3.320852
C    23.533523   23.358183    3.389706
C    27.805826   23.358108    3.406011
C    30.652337   23.358175    3.377029
C     0.752012   23.358056    3.368826
C     5.020742   23.358263    3.422162
C    32.075219   23.358074    3.364383
C     9.292353   23.358214    3.414669
C     0.040530   24.591110    3.355552
C    11.428723   24.591777    3.388524
C    15.700247   24.591687    3.315926
C    19.971996   24.591987    3.344599
C    24.245133   24.591750    3.405174
C     4.309325   24.591528    3.409372
C     8.580811   24.591697    3.431482
C    12.853142   24.592142    3.357225
C    17.124489   24.591506    3.314960
C    21.396939   24.591590    3.366923
C    25.670028   24.591322    3.411629
C    28.517191   24.591564    3.394511
C    29.940786   24.591214    3.377117
C    32.787011   24.591275    3.354171
C     2.886362   24.591307    3.388241
C     7.156133   24.591461    3.434543
C     9.292392   25.824870    3.436257
C    13.564701   25.825365    3.363689
C    17.836141   25.825140    3.338070
C    22.108594   25.825429    3.391802
C    32.075517   25.824462    3.350480
C     2.175152   25.824569    3.371032
C     6.444826   25.825203    3.432868
C    10.717137   25.825475    3.419714
C    14.988758   25.825346    3.341721
C    19.260557   25.824821    3.353147
C    23.533548   25.824738    3.406305
C    26.381517   25.825177    3.410081
C    27.805746   25.824721    3.397166
C    30.652283   25.824638    3.362146
C     0.752381   25.824641    3.354749
C     5.021062   25.824960    3.416587
C     7.156590   27.058380    3.440731
C    11.428807   27.058742    3.425712
C    15.700673   27.058618    3.361956
C    19.972457   27.058709    3.384172
C    29.940759   27.057811    3.364593
C     0.040869   27.057703    3.344571
C     4.309995   27.058340    3.401456
C     8.580843   27.058781    3.447319
C    12.853038   27.059144    3.401251
C    17.124491   27.058358    3.360511
C    21.396899   27.058175    3.399639
C    25.669724   27.058092    3.413030
C    24.245225   27.058641    3.416114
C    28.517091   27.058168    3.383881
C    32.787120   27.057821    3.342473
C     2.886897   27.058115    3.377339
C     5.021887   28.291568    3.410369
C     9.292697   28.291852    3.452028
C    13.564948   28.292103    3.411732
C    17.836772   28.291817    3.393456
C    27.805243   28.291131    3.390173
C    32.075392   28.290791    3.342125
C     2.175535   28.290918    3.362724
C     6.445412   28.291854    3.431380
C    10.716893   28.292477    3.446085
C    23.533423   28.291289    3.422291
C    14.988678   28.292026    3.397255
C    19.260654   28.291343    3.402533
C    22.109055   28.292147    3.420084
C    26.381293   28.291574    3.407712
C    30.652164   28.290838    3.353426
C     0.752467   28.290959    3.347493
C     7.157305   29.524757    3.437085
C    11.428945   29.525312    3.447962
C    15.701184   29.524969    3.420299
C    25.669412   29.524183    3.414425
C    29.940234   29.523617    3.358850
C     0.040827   29.523539    3.341949
C     4.310616   29.524107    3.394024
C    21.397168   29.524509    3.431881
C     8.581116   29.525168    3.449433
C    12.852789   29.525592    3.436987
C    17.124692   29.524662    3.418972
C    19.973173   29.525095    3.428814
C    24.245329   29.524776    3.426167
C    28.516685   29.523927    3.377529
C    32.786845   29.523649    3.340152
C     2.887315   29.523877    3.370518
C     5.022423   30.757189    3.402751
C     9.293206   30.757972    3.449009
C    13.565148   30.758197    3.443915
C    23.533522   30.757298    3.433168
C    27.804812   30.756714    3.385948
C    19.261081   30.757714    3.442948
C    32.075072   30.756207    3.343181
C     2.175909   30.756118    3.359602
C     6.445979   30.757356    3.423263
C    10.717058   30.758499    3.451991
C    14.988795   30.758180    3.440458
C    17.837347   30.758025    3.440683
C    22.109484   30.758082    3.440302
C    26.381050   30.757237    3.406069
C    30.651665   30.756338    3.352077
C     0.752551   30.756297    3.347421
C    32.786766   31.989044    3.344868
C     2.887720   31.989284    3.368343
C     7.157942   31.990471    3.424739
C    21.397489   31.990803    3.446063
C    11.429313   31.991226    3.448560
C    17.125031   31.991042    3.450365
C    25.669275   31.990069    3.412648
C    29.939918   31.989167    3.359551
C     0.041140   31.988792    3.346362
C     4.311162   31.989431    3.386530
C     8.581702   31.990686    3.437221
C    12.853077   31.991468    3.448698
C    15.701340   31.991182    3.449579
C    19.973523   31.991268    3.450768
C    24.245298   31.990515    3.428303
C    28.516269   31.989561    3.375689
C    30.651536   33.222148    3.355762
C     0.752944   33.222021    3.352883
C    19.261350   33.224251    3.450451
C     5.023023   33.222965    3.390429
C     9.293870   33.223891    3.431959
C    23.533419   33.223531    3.429921
C    27.804623   33.222725    3.382068
C    32.075331   33.221940    3.349097
C     2.176584   33.221862    3.361284
C     6.446761   33.222956    3.406966
C    10.717710   33.224221    3.438185
C    13.565331   33.224380    3.445804
C    17.837414   33.224439    3.451921
C    22.109335   33.224058    3.440561
C    14.989103   33.224391    3.448240
C    26.380720   33.223096    3.400063
C    17.125307   34.457411    3.444769
C    28.515977   34.455612    3.372102
C    32.786966   34.455022    3.352456
C     2.888291   34.455406    3.367179
C     7.158789   34.456357    3.404350
C    21.397397   34.457110    3.436287
C    25.668879   34.456219    3.401084
C    29.939928   34.455271    3.361040
C     0.041544   34.454836    3.353342
C     4.312061   34.455517    3.377929
C     8.582640   34.456452    3.414855
C    11.429783   34.457300    3.429888
C    12.853641   34.457445    3.435026
C    15.701353   34.457430    3.442962
C    19.973284   34.457373    3.442194
C    24.244845   34.456442    3.415952
C    26.380111   35.688905    3.384553
C    30.651398   35.688135    3.357758
C     0.753127   35.688045    3.356713
C     5.023938   35.688839    3.376775
C    14.989596   35.690194    3.426954
C    19.261385   35.690141    3.429484
C    23.532990   35.689417    3.408489
C    27.804118   35.688683    3.372741
C    32.075300   35.688002    3.354637
C     2.176950   35.688022    3.360944
C     6.447785   35.688763    3.385513
C     9.294621   35.689626    3.403203
C    10.718461   35.689809    3.410392
C    13.565729   35.690256    3.422849
C    17.837367   35.690206    3.431374
C    22.108935   35.689781    3.419238
C    24.244335   36.921786    3.389278
C    28.515548   36.921162    3.363514
C    32.786851   36.920820    3.355485
C     2.888713   36.920984    3.361595
C    12.854237   36.922509    3.401492
C    17.125533   36.922619    3.412893
C    21.397049   36.922412    3.405319
C    25.668287   36.921691    3.379420
C    29.939484   36.920921    3.358198
C     0.041505   36.920719    3.355789
C     4.312645   36.921125    3.365808
C     8.583436   36.921729    3.382923
C     7.159632   36.921697    3.377067
C    11.430405   36.922537    3.396219
C    15.701695   36.922642    3.411590
C    19.973107   36.922521    3.410967
C    22.108546   38.154541    3.382657
C    26.379779   38.154086    3.363598
C    30.651088   38.153594    3.353316
C     0.753293   38.153508    3.354652
C    10.719062   38.154531    3.373832
C    14.990033   38.154768    3.388971
C    19.261201   38.154911    3.391496
C    23.532425   38.154344    3.376406
C    27.803666   38.153924    3.358025
C     6.448266   38.153877    3.361726
C    32.074985   38.153440    3.352431
C     2.177199   38.153480    3.355318
C     5.024393   38.153917    3.359411
C     9.295262   38.154434    3.369645
C    13.566226   38.154838    3.384299
C    17.837421   38.154790    3.392952
C    24.243949   39.386687    3.359922
C    28.515340   39.386620    3.350218
C    32.786781   39.386340    3.349664
C     8.583763   39.386667    3.354579
C    12.854681   39.387080    3.365001
C    17.125609   39.387133    3.374358
C    21.396603   39.387166    3.368615
C     4.312898   39.386479    3.351105
C    25.667880   39.386733    3.355107
C    29.939203   39.386385    3.349067
C     0.041585   39.386234    3.349937
C     2.889046   39.386408    3.351337
C     7.159997   39.386626    3.353137