==================================================================================
It's Wed 18 Oct 2023 04:47:29 PM BST.
*** Starting onetep_launcher (node nid003823, PIDs 28384 28385 28386 28387 28388 28389 28390 28391 28392 28393 28394 28395 28396 28397 28398 28399)...
    - ONETEP arguments: graphite.dat
    - Current directory: /mnt/lustre/a2fs-work3/work/e89/e89/arihant/linuc/theta/new/00/0.0
    - Launcher executable directory: /mnt/lustre/a2fs-work3/work/e89/e89/arihant/onetep/utils
    - (-e) ONETEP executable specified through command-line: /work/e89/e89/arihant/onetep/bin/onetep.archer2_2023_cray
      ... trying /work/e89/e89/arihant/onetep/bin/onetep.archer2_2023_cray
          -> looks OK
*** Setting up environment...
    - (-s) Process stack size: unlimited
    - (-t) OMP_NUM_THREADS: 8
    - (-o) OMP_STACKSIZE: 64M
    - (-c) Maximum core file size: 2048000
    - (-d) decfort_dump_flag: n
    - (-m) I_MPI_OFA_TRANSLATION_CACHE: 0
    - (-m) I_MPI_DAPL_TRANSLATION_CACHE: 0
    - (-m) I_MPI_DAPL_UD_TRANSLATION_CACHE: 0
*** Starting ONETEP...
    - /work/e89/e89/arihant/onetep/bin/onetep.archer2_2023_cray graphite.dat
=================================================================================
_________________________________________________________________________________
 +---------------------------------------------------------------+
 |                                                               |
 |        ####### #     # ####### ####### ####### ######         |
 |        #     # ##    # #          #    #       #     #        |
 |        #     # # #   # #          #    #       #     #        |
 |        #     # #  #  # #####      #    #####   ######         |
 |        #     # #   # # #          #    #       #              |
 |        #     # #    ## #          #    #       #              |
 |        ####### #     # #######    #    ####### #              |
 |                                                               |
 |        Linear-Scaling Ab Initio Total Energy Program          |
 |                                                               |
 |          Release for academic collaborators of ODG            |
 |                                             Version 6.1.59    |
 | Remote: https://github.com/onetep-devel/onetep.git            |
 | Local branch: master                                          |
 | Commit ID: 3df6b8ca88fa1735659d3248d54c94b50edec21b           |
 | Date: Thu Oct 5 13:49:52 2023 +0200                           |
 | Working tree clean                                            |
 |                                                               |
 +---------------------------------------------------------------+
 |                                                               |
 |  Authors:                                                     |
 |  Jacek Dziedzic, Peter D. Haynes, Nicholas D. M. Hine,        |
 |  Arash A. Mostofi, Mike C. Payne and Chris-Kriton Skylaris    |
 |                                                               |
 |  Contributors:                                                |
 |  J. Aarons, L. Andrinopoulos, P. W. Avraam, R. A. Bell,       |
 |  A. Bhandari, G. A. Bramley, R. J. Charlton, S. J. Clark,     |
 |  R. J. Clements, G. C. Constantinescu, F. Corsetti,           |
 |  N. Corsini, O. Dieguez, S. M. M. Dubois, K. K. B. Duff,      |
 |  J. M. Escartin, M. Escobar Azor, A. Greco,                   |
 |  H. Helal, Q. O. Hill, L. P. Lee, J.-H. Li,                   |
 |  E. B. Linscott, G. Moynihan, D. D. O`Regan,                  |
 |  O. K. Okan, M. J. S. Phipps, C. J. Pickard,                  |
 |  J. C. A. Prentice, M. I. J. Probert, L. E. Ratcliff,         |
 |  M. Robinson, A. Ruiz Serrano, M. dos Santos Dias,            |
 |  J. S. Spencer, E. W. Tait, G. Teobaldi, D. Turban,           |
 |  V. Vitale, K. A. Wilkinson, C. Weber, J. C. Womack,          |
 |  N. Yeung and T. J. Zuehlsdorff                               |
 |                                                               |
 |                                   Copyright (c) 2004-2023     |
 |                                                               |
 |  Please cite:                                                 |
 |  "The ONETEP linear-scaling density functional theory program"|
 |   J. Chem. Phys. 152(17) 174111 (2020)                        |
 |                                                               |
 |          in all publications arising from your use of ONETEP. |
 |                                                               |
 +---------------------------------------------------------------+
 |                                                               |
 |   ONETEP is based on developments described in the following  |
 |   publications:                                               |
 |                                                               |
 |  "Nonorthogonal generalized Wannier function pseudopotential  |
 |   plane-wave method".                                         |
 |   C.-K. Skylaris, A. A. Mostofi, P. D. Haynes, O. Dieguez,    |
 |   M. C. Payne.                                                |
 |   Phys. Rev. B 66 035119 (2002).                              |
 |                                                               |
 |  "Preconditioned iterative minimization for linear-scaling    |
 |   electronic structure calculations".                         |
 |   A. A. Mostofi, P. D. Haynes, C.-K. Skylaris, M. C. Payne.   |
 |   J. Chem. Phys. 119(17), pp.8842-8848 (2003).                |
 |                                                               |
 |  "Total-energy calculations on a real space grid with         |
 |   localized functions and a plane-wave basis".                |
 |   A. A. Mostofi, C.-K. Skylaris, P. D. Haynes, M. C. Payne.   |
 |   Comput. Phys. Commun. 147, pp.788-802 (2002).               |
 |                                                               |
 |  "Accurate kinetic energy evaluation in electronic structure  |
 |   calculations with localized functions on real space grids"  |
 |   C.-K. Skylaris, A. A. Mostofi, P. D. Haynes, C. J. Pickard, |
 |   M. C. Payne.                                                |
 |   Comput. Phys. Commun. 140, pp.315-322 (2001).               |
 |                                                               |
 |  "Accurate ionic forces and geometry optimization in linear-  |
 |   scaling density-functional theory with local orbitals"      |
 |   N. D. M. Hine, M. Robinson, P. D. Haynes, C.-K. Skylaris,   |
 |   M. C. Payne, and A. A. Mostofi.                             |
 |   Phys. Rev. B 83 195102 (2011).                              |
 |                                                               |
 +---------------------------------------------------------------+

Job started: 18-10-2023 16:47 (+0100)
 
Reading parameters from file "graphite.dat" ...... done

If your calculation crashes here, before "Checking processes and threads..."
is displayed, then your stack size is insufficient.
If so, use "ulimit -s unlimited" at runtime.
You can disable this check with "check_stack_size F".

Checking processes and threads...
   Determining the default number of threads...
      No default threads set at compilation time: defaulting to 1.
      OpenMP library call suggests 8 threads.
      Hybrid MPI-OpenMP compilation detected.
      Number of MPI processes > 1.
      OMP_NUM_THREADS environment variable present and
      its value matches the one obtained from the OpenMP library call.
      Using this value as default.
      Default threads: 8
      Default applies to threads_max and threads_num_fftboxes.
      Settings in the input file override this default.
   ... done

   Running with 128 MPI processes.
   There are 16 MPI processes running on the same node as the root process.
   Each MPI process is using: 
               1 threads for simulation cell FFTs.
               1 threads for parallel FFT box operations.
               8 threads for loops over batched FFT box operations.
               8 threads in other parallel regions.
   MPI Interface: S1 (use mpi_f08) (-DMPI -DUSE_MPI_F08).
   MPI_ASYNC_PROTECTS_NONBLOCKING: Yes. MPI_SUBARRAYS_SUPPORTED: Yes.
   GPU Interface: None.
... done

Basic input checks...
Resetting ngwf_cg_rotate to TRUE for EDFT calculations
... done

Reading geometry and species blocks from file "graphite.dat" ...
  Reading POSITIONS geometry from str.xyz

  <species_atomic_set> block not found: NGWF initialisation set to SOLVE
IS: Dielectric excluded regions:
    - NONE.
IS: Assigning soft sphere radii for soft sphere solvation...
IS: No soft sphere radii specified. Default Alvarez radii used for all atoms.

----------- SOFT SPHERE RADII -----------
C   4.442
-----------------------------------------

    
  Number of PPD points along a3 set to 1.  This is 
  the default value, it may have been provided also in the input file.
... done
 Writing xyz coordinates to file "graphite.xyz" ... done


--------------------------------------------------------------------------------
---------------------------------- INPUT FILE ----------------------------------
--------------------------------------------------------------------------------

task geometryoptimization                                                       
geom_method LBFGS                                                               
write_xyz T                                                                     
edft_grand_canonical T                                                          
edft_reference_potential  -4.42 eV                                              
edft_electrode_potential 0.0 V                                                  
edft_nelec_thres 0.000001                                                       
is_dielectric_function soft_sphere                                              
is_implicit_solvent T                                                           
is_smeared_ion_rep T                                                            
is_include_apolar T                                                             
is_solvation_properties F                                                       
is_pbe                    full                                                  
is_pbe_temperature        298.15                                                
is_pbe_bc_debye_screening T                                                     
is_pbe_neutralisation_scheme counterions_auto                                   
is_pbe_energy_tolerance 1E+50                                                   
is_bc_coarseness 5                                                              
is_bc_threshold 1E-9                                                            
is_bulk_permittivity 90.7                                                       
is_solvent_surf_tension 0.0506 N/m                                              
%block sol_ions                                                                 
Li  +1 1.0                                                                      
PF6 -1 1.0                                                                      
%endblock sol_ions                                                              
is_steric_pot_type M                                                            
is_hc_steric_dens_isovalue  0.001                                               
is_hc_steric_smearing         0.4 bohr                                          
is_steric_write T                                                               
%block species_solvent_radius                                                   
C 3.0                                                                           
%endblock species_solvent_radius                                                
multigrid_bc:   P P P                                                           
ion_ion_bc:     P P P                                                           
pspot_bc:       P P P                                                           
smeared_ion_bc: P P P                                                           
mg_max_iters_vcycle 500                                                         
mg_vcyc_smoother_iter_pre 4                                                     
mg_vcyc_smoother_iter_post 4                                                    
mg_max_res_ratio 1000.0                                                         
mg_max_iters_newton 300                                                         
edft                    : T                                                     
edft_smearing_width     : 0.1 eV                                                
spin                    : 0.0                                                   
edft_spin_fix           : 2                                                     
spin_polarized          : T                                                     
cutoff_energy :  1000 eV                                                        
kernel_cutoff : 1000 bohr                                                       
xc_functional PBE                                                               
dispersion 4                                                                    
output_detail VERBOSE                                                           
do_properties T                                                                 
cube_format F                                                                   
dx_format F                                                                     
write_denskern T                                                                
write_tightbox_ngwfs T                                                          
write_hamiltonian T                                                             
%block species                                                                  
C  C  6  4  8.0                                                                 
%endblock species                                                               
%block species_pot                                                              
C '/work/e89/e89/arihant/pseudo/C.usp'                                          
%endblock species_pot                                                           
%BLOCK LATTICE_CART                                                             
ang                                                                             
34.16920551     0.00000000     0.00000000                                       
0.00000000    19.72760000     0.00000000                                        
0.00000000     0.00000000   100.02798000                                        
%ENDBLOCK LATTICE_CART                                                          
positions_xyz_file str.xyz                                                      
     Hash =   000002637325395329281122

--------------------------------------------------------------------------------
-------------------------------- END INPUT FILE --------------------------------
--------------------------------------------------------------------------------


 
 ESDF WARNING(1): "ispbeenergytolerance" (esdf_physical) has no units. Assume "hartree".
<<<<<<<<<<<<<<<<<<<<<<<<<<<<<<<<< Full system >>>>>>>>>>>>>>>>>>>>>>>>>>>>>>>>>>
<<<<<<<<<<<<<<<<<<<<<<<<< Pseudopotential information >>>>>>>>>>>>>>>>>>>>>>>>>>
File: /work/e89/e89/arihant/pseudo/C.usp [ 2001 points up to Gmax=  52.9 (1/bohr)]
  Atomic number:  6;  ionic charge:  4.000000
    Shell 1: l = 0; rc = 1.19 bohr
  Core charge supplied for Nonlinear Core Corrections
<<<<<<<<<<<<<<<<<<<<<<<<<<<<<<<<<<<<<<<<>>>>>>>>>>>>>>>>>>>>>>>>>>>>>>>>>>>>>>>>

-------------------------- Atom counting information ---------------------------
Symbol    Natoms    Nngwfs    Nprojs
  C        512      2048       512
.......   ......    ......    ......
Totals:    512      2048       512
--------------------------------------------------------------------------------

=============================== PSINC grid sizes ===============================
                      Simulation cell:  143 x  91 x 416
                              FFT-box:  117 x  91 x 117
                                  PPD:   11 x   7 x   1
Grid space d1=  0.451541543008a0 (KE cutoff=  37.25706Eh =1013.81618eV)
Grid space d2=  0.409667706512a0 (KE cutoff=  45.26271Eh =1231.66098eV)
Grid space d3=  0.454388192297a0 (KE cutoff=  36.79171Eh =1001.15326eV)
================================================================================
  
WARNING in cell_grid_distribute:
Average of less than one 23-slab per proc, so workload cannot be
equally balanced between procs.

********************* Fourier parallelisation information **********************
       Coarse grid (whole simulation cell) dimensions:    143    91   416
          Real-space ('12') slabs/proc (min max mean):      3     4     3
         Recip-space ('23') slabs/proc (min max mean):      0     1     0
********************************************************************************

********************* Fourier parallelisation information **********************
       Double grid (whole simulation cell) dimensions:    286   182   832
          Real-space ('12') slabs/proc (min max mean):      6     7     6
         Recip-space ('23') slabs/proc (min max mean):      1     2     1
********************************************************************************

********************* Fourier parallelisation information **********************
         Fine grid (whole simulation cell) dimensions:    288   184   832
          Real-space ('12') slabs/proc (min max mean):      6     7     6
         Recip-space ('23') slabs/proc (min max mean):      1     2     1
         Grid scale modified to satisfy multigrid solver grid constraints
         Grid scale values after modifification:         2.01  2.02  2.00
********************************************************************************
ONETEP fine grid is 288 x 184 x 832 gridpoints, 64.5704 x 37.2798 x 189.0255 bohr.
FD multigrid is     288 x 184 x 832 gridpoints, 64.5704 x 37.2798 x 189.0255 bohr.


Atom SCF Calculation for C  : Z (AE atom) =   6 : Z (PS atom) =   4
Config String:
Orbitals (num,occ):  2     2.00 2.00
Orbitals   (num,l):  2        0    1
Real-space Grid (nr,dr,rmax): 1343    0.0059612519    8.0000000000
Spherical Bessel Basis (nsws,lmax,cutoff):   37    1  220.4959463253
Confining potential (l,width,scale):  0    3.0000000000  100.0000000000
Confining potential (l,width,scale):  1    3.0000000000  100.0000000000
  1         -5.8177092822   -1.2555419264    4.5135233515   -1.7471920893
  2         -5.6032261188   -1.3440047989    4.4246587726   -1.7090653419
  3         -5.5936068668   -1.3561735374    4.4140765627   -1.7034094417
  4         -5.5958505747   -1.3587284552    4.4121342699   -1.7022848669
  5         -5.5969687665   -1.3601698222    4.4109982405   -1.7017057890
  6         -5.5975400979   -1.3609792837    4.4103423276   -1.7013975981
  7         -5.5978435204   -1.3614297943    4.4099696476   -1.7012314972
  8         -5.5980096069   -1.3616786122    4.4097605138   -1.7011416075
  9         -5.5981021113   -1.3618152853    4.4096441572   -1.7010929151
 10         -5.5981539939   -1.3618900852    4.4095797860   -1.7010665406
 11         -5.5981831160   -1.3619309228    4.4095443105   -1.7010522599
 12         -5.5981994243   -1.3619531807    4.4095248124   -1.7010445305
 13         -5.5982085235   -1.3619652972    4.4095141175   -1.7010403487
 14         -5.5982135796   -1.3619718867    4.4095082606   -1.7010380870
 15         -5.5982163780   -1.3619754676    4.4095050573   -1.7010368642
 16         -5.5982179208   -1.3619774123    4.4095033073   -1.7010362032
 17         -5.5982187685   -1.3619784678    4.4095023522   -1.7010358460
 18         -5.5982192328   -1.3619790404    4.4095018314   -1.7010356530
 19         -5.5982194864   -1.3619793509    4.4095015476   -1.7010355488
 20         -5.5982196245   -1.3619795192    4.4095013931   -1.7010354925
 21         -5.5982196995   -1.3619796104    4.4095013090   -1.7010354621
Atom SCF converged after  21 iterations to a total energy of     -5.59821970

BC: Task: GEOMETRYOPTIMIZATION
BC: +++++++++++++++ Summary of boundary conditions ++++++++++++++
BC: |       Component       |     Keyword     |   Periodicity   |
BC: |                       |                 |     X  Y  Z [1] |
BC: |-----------------------------------------------------------|
BC: | Ion-ion               | ion_ion_bc [2]  |     P  P  P     |
BC: | Local pseudopotential | pspot_bc [3]    |     P  P  P     |
BC: | Multigrid solver      | multigrid_bc    |     P  P  P     |
BC: | Smeared ions          | smeared_ion_bc  |     P  P  P     |
BC: | Van der Waals         | vdw_bc          |     P  P  P     |
BC: +++++++++++++++++++++++++++++++++++++++++++++++++++++++++++++
BC: P: Periodic, O: Open.
BC: [1] Not strictly along X, Y, Z but rather along lattice vectors A1, A2, A3.
BC: [2] Also affected by: pbc_correction_cutoff, cutoff_coulomb_type,
BC:     is_smeared_ion_rep, is_implicit_solvent, openbc_ion_ion.
BC: [3] Also affected by: is_smeared_ion_rep, is_implicit_solvent, openbc_pspot.

================================================================================
<<<<<<<<<<<<<<<<<<<< Starting ONETEP Geometry Optimisation >>>>>>>>>>>>>>>>>>>>>
================================================================================

 Geometry Optimisation: output file is "graphite.geom"
 
 
                           -------------------------------
                                     Cell Contents
                           -------------------------------
 
            xxxxxxxxxxxxxxxxxxxxxxxxxxxxxxxxxxxxxxxxxxxxxxxxxxxxxxxxxxxx
            x  Element    Atom      Absolute co-ordinates of atoms     x
            x            Number        x           y           z       x
            x----------------------------------------------------------x
            x    C         1       41.777771    2.198477    6.273064   x
            x    C         2       49.849300    2.199053    6.274336   x
            x    C         3       57.920611    2.198534    6.274639   x
            x    C         4       12.182889    2.198021    6.273396   x
            x    C         5       20.254642    2.197882    6.273732   x
            x    C         6        4.111518    2.198260    6.272929   x
            x    C         7       28.326022    2.198399    6.272876   x
            x    C         8       36.396843    2.198497    6.272086   x
            x    C         9       44.468292    2.198906    6.272715   x
            x    C        10       52.539621    2.198777    6.273941   x
            x    C        11       60.611099    2.198611    6.273623   x
            x    C        12        1.421229    2.198590    6.273846   x
            x    C        13        9.492314    2.198089    6.273655   x
            x    C        14       17.564226    2.197890    6.274414   x
            x    C        15       25.635586    2.197966    6.274030   x
            x    C        16       33.706556    2.198501    6.272972   x
            x    C        17       29.670926    4.528337    6.273113   x
            x    C        18       37.741911    4.528381    6.272409   x
            x    C        19       45.813438    4.528768    6.273308   x
            x    C        20        8.146864    4.528227    6.273310   x
            x    C        21       53.884684    4.528661    6.274692   x
            x    C        22        0.075772    4.528282    6.273577   x
            x    C        23       16.218474    4.527696    6.273881   x
            x    C        24       24.290404    4.528195    6.273293   x
            x    C        25       32.361191    4.528277    6.271983   x
            x    C        26       40.432463    4.528607    6.271719   x
            x    C        27       48.503671    4.528629    6.273142   x
            x    C        28       56.575214    4.528606    6.273884   x
            x    C        29       61.955958    4.528594    6.274520   x
            x    C        30        5.456316    4.528312    6.274126   x
            x    C        31       13.527857    4.528025    6.274406   x
            x    C        32       21.599828    4.527843    6.274270   x
            x    C        33       25.635676    6.858345    6.273671   x
            x    C        34       33.706535    6.858278    6.272309   x
            x    C        35        4.111551    6.858452    6.273817   x
            x    C        36       41.777938    6.858582    6.272395   x
            x    C        37       49.849272    6.858429    6.273884   x
            x    C        38       12.182431    6.858073    6.273723   x
            x    C        39       20.255016    6.858193    6.273471   x
            x    C        40       28.325947    6.858250    6.272560   x
            x    C        41       36.397092    6.858506    6.271470   x
            x    C        42       44.468206    6.858498    6.272072   x
            x    C        43       52.539717    6.858653    6.273625   x
            x    C        44       57.920535    6.858642    6.274768   x
            x    C        45        1.421087    6.858277    6.274563   x
            x    C        46        9.491933    6.858469    6.274320   x
            x    C        47       60.610836    6.858406    6.273987   x
            x    C        48       17.564197    6.857877    6.273901   x
            x    C        49        0.075875    9.188455    6.273855   x
            x    C        50       21.600061    9.188508    6.273663   x
            x    C        51       29.670806    9.188333    6.272979   x
            x    C        52       37.742070    9.188505    6.272043   x
            x    C        53       45.813351    9.188364    6.272957   x
            x    C        54        8.146564    9.188367    6.273741   x
            x    C        55       16.218592    9.188481    6.272726   x
            x    C        56       24.290401    9.188289    6.273017   x
            x    C        57       32.361336    9.188436    6.271686   x
            x    C        58       40.432398    9.188295    6.271456   x
            x    C        59       48.503852    9.188451    6.272666   x
            x    C        60       53.884761    9.188511    6.274482   x
            x    C        61       56.575015    9.188314    6.273952   x
            x    C        62       61.955789    9.188394    6.274773   x
            x    C        63        5.456279    9.188561    6.274729   x
            x    C        64       13.527530    9.188419    6.273693   x
            x    C        65       17.564201   11.518971    6.272952   x
            x    C        66       25.635655   11.518440    6.273457   x
            x    C        67       33.706620   11.518532    6.272385   x
            x    C        68       41.777883   11.518264    6.272280   x
            x    C        69       60.610988   11.518482    6.273952   x
            x    C        70        4.111356   11.518472    6.273949   x
            x    C        71       12.182591   11.518865    6.273191   x
            x    C        72       20.254884   11.518709    6.272716   x
            x    C        73       28.326110   11.518537    6.272504   x
            x    C        74       36.396947   11.518331    6.271458   x
            x    C        75       44.468381   11.518374    6.271940   x
            x    C        76       49.849325   11.518384    6.273742   x
            x    C        77       52.539572   11.518245    6.273521   x
            x    C        78       57.920513   11.518190    6.274746   x
            x    C        79        1.421093   11.518555    6.274641   x
            x    C        80        9.491887   11.518470    6.274175   x
            x    C        81       13.527828   13.849069    6.273427   x
            x    C        82       21.599822   13.848932    6.273552   x
            x    C        83       29.670926   13.848605    6.273164   x
            x    C        84       37.741937   13.848326    6.272365   x
            x    C        85       56.575209   13.848311    6.273785   x
            x    C        86        0.075738   13.848324    6.273598   x
            x    C        87        8.146805   13.848774    6.273466   x
            x    C        88       16.218463   13.848962    6.272571   x
            x    C        89       24.290404   13.848678    6.273001   x
            x    C        90       32.361194   13.848262    6.272027   x
            x    C        91       40.432496   13.848334    6.271649   x
            x    C        92       48.503707   13.847996    6.272799   x
            x    C        93       45.813471   13.848239    6.273023   x
            x    C        94       53.884687   13.848113    6.274446   x
            x    C        95       61.955943   13.848413    6.274475   x
            x    C        96        5.456274   13.848505    6.274410   x
            x    C        97        9.492282   16.178809    6.273830   x
            x    C        98       17.564209   16.178976    6.273479   x
            x    C        99       25.635585   16.178818    6.274133   x
            x    C       100       33.706541   16.178256    6.272936   x
            x    C       101       52.539793   16.178135    6.273601   x
            x    C       102       60.610924   16.178241    6.273535   x
            x    C       103        4.111613   16.178636    6.273137   x
            x    C       104       12.182665   16.178947    6.272967   x
            x    C       105       20.254767   16.179010    6.273117   x
            x    C       106       44.468196   16.177984    6.272481   x
            x    C       107       28.325865   16.178418    6.273014   x
            x    C       108       36.397046   16.178359    6.271996   x
            x    C       109       41.777864   16.178354    6.272908   x
            x    C       110       49.849301   16.177792    6.273969   x
            x    C       111       57.920643   16.178273    6.274466   x
            x    C       112        1.421153   16.178209    6.273863   x
            x    C       113       13.527987   18.508805    6.273682   x
            x    C       114       21.599719   18.508973    6.274584   x
            x    C       115       29.670726   18.508443    6.273902   x
            x    C       116       48.503843   18.507845    6.273337   x
            x    C       117       56.575230   18.507991    6.273630   x
            x    C       118        0.076000   18.508381    6.272671   x
            x    C       119        8.146908   18.508519    6.272757   x
            x    C       120       40.432203   18.508014    6.272450   x
            x    C       121       16.218596   18.508988    6.273155   x
            x    C       122       24.290006   18.508494    6.273850   x
            x    C       123       32.361252   18.508362    6.272708   x
            x    C       124       37.741898   18.508378    6.273093   x
            x    C       125       45.813251   18.507875    6.273735   x
            x    C       126       53.884962   18.507964    6.274458   x
            x    C       127       61.955934   18.508135    6.273774   x
            x    C       128        5.456620   18.508511    6.273331   x
            x    C       129        9.492550   20.838357    6.273064   x
            x    C       130       17.564080   20.838933    6.274336   x
            x    C       131       25.635390   20.838415    6.274639   x
            x    C       132       44.468109   20.837902    6.273396   x
            x    C       133       52.539863   20.837763    6.273732   x
            x    C       134       36.396739   20.838140    6.272929   x
            x    C       135       60.611242   20.838280    6.272876   x
            x    C       136        4.111623   20.838377    6.272086   x
            x    C       137       12.183071   20.838787    6.272715   x
            x    C       138       20.254401   20.838658    6.273941   x
            x    C       139       28.325878   20.838492    6.273623   x
            x    C       140       33.706449   20.838470    6.273846   x
            x    C       141       41.777535   20.837969    6.273655   x
            x    C       142       49.849447   20.837771    6.274414   x
            x    C       143       57.920806   20.837846    6.274030   x
            x    C       144        1.421335   20.838381    6.272972   x
            x    C       145       61.956146   23.168218    6.273113   x
            x    C       146        5.456691   23.168261    6.272409   x
            x    C       147       13.528218   23.168649    6.273308   x
            x    C       148       40.432085   23.168107    6.273310   x
            x    C       149       21.599464   23.168542    6.274692   x
            x    C       150       32.360992   23.168163    6.273577   x
            x    C       151       48.503694   23.167577    6.273881   x
            x    C       152       56.575625   23.168076    6.273293   x
            x    C       153        0.075970   23.168157    6.271983   x
            x    C       154        8.147243   23.168488    6.271719   x
            x    C       155       16.218451   23.168510    6.273142   x
            x    C       156       24.289993   23.168486    6.273884   x
            x    C       157       29.670738   23.168474    6.274520   x
            x    C       158       37.741536   23.168193    6.274126   x
            x    C       159       45.813078   23.167906    6.274406   x
            x    C       160       53.885049   23.167724    6.274270   x
            x    C       161       57.920896   25.498225    6.273671   x
            x    C       162        1.421315   25.498159    6.272309   x
            x    C       163       36.396771   25.498333    6.273817   x
            x    C       164        9.492718   25.498463    6.272395   x
            x    C       165       17.564052   25.498310    6.273884   x
            x    C       166       44.467651   25.497953    6.273723   x
            x    C       167       52.540237   25.498073    6.273471   x
            x    C       168       60.611167   25.498131    6.272560   x
            x    C       169        4.111872   25.498386    6.271470   x
            x    C       170       12.182986   25.498378    6.272072   x
            x    C       171       20.254497   25.498534    6.273625   x
            x    C       172       25.635315   25.498523    6.274768   x
            x    C       173       33.706307   25.498158    6.274563   x
            x    C       174       41.777153   25.498350    6.274320   x
            x    C       175       28.325616   25.498286    6.273987   x
            x    C       176       49.849417   25.497757    6.273901   x
            x    C       177       32.361096   27.828335    6.273855   x
            x    C       178       53.885282   27.828389    6.273663   x
            x    C       179       61.956026   27.828214    6.272979   x
            x    C       180        5.456849   27.828386    6.272043   x
            x    C       181       13.528131   27.828245    6.272957   x
            x    C       182       40.431784   27.828247    6.273741   x
            x    C       183       48.503812   27.828362    6.272726   x
            x    C       184       56.575621   27.828170    6.273017   x
            x    C       185        0.076116   27.828317    6.271686   x
            x    C       186        8.147177   27.828176    6.271456   x
            x    C       187       16.218632   27.828332    6.272666   x
            x    C       188       21.599541   27.828392    6.274482   x
            x    C       189       24.289794   27.828195    6.273952   x
            x    C       190       29.670569   27.828274    6.274773   x
            x    C       191       37.741499   27.828442    6.274729   x
            x    C       192       45.812750   27.828300    6.273693   x
            x    C       193       49.849421   30.158851    6.272952   x
            x    C       194       57.920876   30.158320    6.273457   x
            x    C       195        1.421400   30.158413    6.272385   x
            x    C       196        9.492662   30.158145    6.272280   x
            x    C       197       28.325767   30.158362    6.273952   x
            x    C       198       36.396576   30.158352    6.273949   x
            x    C       199       44.467811   30.158745    6.273191   x
            x    C       200       52.540104   30.158590    6.272716   x
            x    C       201       60.611331   30.158418    6.272504   x
            x    C       202        4.111727   30.158211    6.271458   x
            x    C       203       12.183161   30.158255    6.271940   x
            x    C       204       17.564105   30.158264    6.273742   x
            x    C       205       20.254351   30.158125    6.273521   x
            x    C       206       25.635292   30.158070    6.274746   x
            x    C       207       33.706314   30.158436    6.274641   x
            x    C       208       41.777107   30.158351    6.274175   x
            x    C       209       45.813049   32.488950    6.273427   x
            x    C       210       53.885042   32.488813    6.273552   x
            x    C       211       61.956146   32.488485    6.273164   x
            x    C       212        5.456717   32.488207    6.272365   x
            x    C       213       24.289989   32.488192    6.273785   x
            x    C       214       32.360959   32.488205    6.273598   x
            x    C       215       40.432026   32.488654    6.273466   x
            x    C       216       48.503684   32.488843    6.272571   x
            x    C       217       56.575625   32.488559    6.273001   x
            x    C       218        0.075973   32.488143    6.272027   x
            x    C       219        8.147275   32.488215    6.271649   x
            x    C       220       16.218487   32.487877    6.272799   x
            x    C       221       13.528251   32.488120    6.273023   x
            x    C       222       21.599467   32.487993    6.274446   x
            x    C       223       29.670723   32.488293    6.274475   x
            x    C       224       37.741495   32.488385    6.274410   x
            x    C       225       41.777502   34.818690    6.273830   x
            x    C       226       49.849429   34.818856    6.273479   x
            x    C       227       57.920805   34.818699    6.274133   x
            x    C       228        1.421321   34.818137    6.272936   x
            x    C       229       20.254573   34.818015    6.273601   x
            x    C       230       28.325703   34.818121    6.273535   x
            x    C       231       36.396833   34.818516    6.273137   x
            x    C       232       44.467885   34.818827    6.272967   x
            x    C       233       52.539987   34.818891    6.273117   x
            x    C       234       12.182975   34.817865    6.272481   x
            x    C       235       60.611085   34.818299    6.273014   x
            x    C       236        4.111826   34.818240    6.271996   x
            x    C       237        9.492643   34.818234    6.272908   x
            x    C       238       17.564081   34.817672    6.273969   x
            x    C       239       25.635422   34.818153    6.274466   x
            x    C       240       33.706374   34.818090    6.273863   x
            x    C       241       45.813207   37.148685    6.273682   x
            x    C       242       53.884940   37.148853    6.274584   x
            x    C       243       61.955946   37.148324    6.273902   x
            x    C       244       16.218623   37.147726    6.273337   x
            x    C       245       24.290010   37.147871    6.273630   x
            x    C       246       32.361220   37.148261    6.272671   x
            x    C       247       40.432128   37.148400    6.272757   x
            x    C       248        8.146983   37.147894    6.272450   x
            x    C       249       48.503817   37.148869    6.273155   x
            x    C       250       56.575226   37.148375    6.273850   x
            x    C       251        0.076031   37.148242    6.272708   x
            x    C       252        5.456678   37.148259    6.273093   x
            x    C       253       13.528030   37.147756    6.273735   x
            x    C       254       21.599741   37.147845    6.274458   x
            x    C       255       29.670713   37.148015    6.273774   x
            x    C       256       37.741840   37.148392    6.273331   x
            x    C       257       18.926046    9.189441   12.645581   x
            x    C       258       13.513885    9.190060   12.645350   x
            x    C       259       14.866839   11.534130   12.637674   x
            x    C       260       17.573442   11.533998   12.632969   x
            x    C       261       51.211266   27.829321   12.645581   x
            x    C       262       45.799105   27.829941   12.645350   x
            x    C       263       47.152060   30.174010   12.637674   x
            x    C       264       49.858662   30.173878   12.632969   x
            x    C       265       14.867784    6.846746   12.657824   x
            x    C       266       17.573767    6.845455   12.653404   x
            x    C       267       21.608607   13.855042   12.663953   x
            x    C       268       18.919694   13.866181   12.656240   x
            x    C       269       13.519377   13.867665   12.658928   x
            x    C       270       14.873015   16.190257   12.663126   x
            x    C       271       17.566482   16.189839   12.660350   x
            x    C       272       47.153004   25.486627   12.657824   x
            x    C       273       49.858987   25.485336   12.653404   x
            x    C       274       53.893827   32.494922   12.663953   x
            x    C       275       51.204914   32.506062   12.656240   x
            x    C       276       45.804598   32.507546   12.658928   x
            x    C       277       47.158236   34.830138   12.663126   x
            x    C       278       49.851702   34.829720   12.660350   x
            x    C       279       14.873713    2.189836   12.683087   x
            x    C       280       17.567106    2.189587   12.680474   x
            x    C       281       22.951674    2.193645   12.679445   x
            x    C       282        9.489464    2.193267   12.680970   x
            x    C       283       63.303282    2.198566   12.676520   x
            x    C       284        6.799735    2.196212   12.679671   x
            x    C       285       31.019037    2.197512   12.677533   x
            x    C       286        1.422346    2.197226   12.675921   x
            x    C       287       25.641879    2.196016   12.677882   x
            x    C       288       33.708421    2.199445   12.677201   x
            x    C       289       39.087013    2.201249   12.680658   x
            x    C       290       55.233770    2.202126   12.678885   x
            x    C       291       57.924040    2.200126   12.677059   x
            x    C       292       47.160100    2.205545   12.679699   x
            x    C       293       41.776856    2.203332   12.680842   x
            x    C       294       49.850296    2.205487   12.677832   x
            x    C       295       18.919887    4.513457   12.679294   x
            x    C       296       13.520641    4.513232   12.681181   x
            x    C       297       10.832302    4.523239   12.680474   x
            x    C       298       26.986588    4.525659   12.679472   x
            x    C       299        5.454330    4.525508   12.678492   x
            x    C       300       21.608763    4.522763   12.676503   x
            x    C       301       59.268103    4.529317   12.675982   x
            x    C       302        2.765512    4.527292   12.677675   x
            x    C       303       35.053181    4.528877   12.678622   x
            x    C       304       61.958277    4.528229   12.674837   x
            x    C       305       29.675937    4.527534   12.677736   x
            x    C       306       43.123365    4.531849   12.680633   x
            x    C       307       51.196622    4.532857   12.679396   x
            x    C       308       37.742745    4.530183   12.678454   x
            x    C       309       53.887056    4.531116   12.677150   x
            x    C       310       45.813925    4.533446   12.679911   x
            x    C       311       22.955578    6.855269   12.675428   x
            x    C       312       63.302494    6.858371   12.675907   x
            x    C       313        6.797064    6.857090   12.679687   x
            x    C       314       31.020212    6.858054   12.679033   x
            x    C       315       39.088557    6.859464   12.679284   x
            x    C       316       57.922947    6.859031   12.674697   x
            x    C       317        1.421260    6.857568   12.676359   x
            x    C       318        9.485735    6.855802   12.675963   x
            x    C       319       25.644812    6.856934   12.678318   x
            x    C       320       33.709471    6.858598   12.677850   x
            x    C       321       55.232658    6.859587   12.676242   x
            x    C       322       47.160502    6.861335   12.678879   x
            x    C       323       41.778555    6.860439   12.678473   x
            x    C       324       49.850519    6.861037   12.677391   x
            x    C       325       51.196593    9.189106   12.676343   x
            x    C       326       59.267650    9.188378   12.675609   x
            x    C       327        2.764724    9.188389   12.678249   x
            x    C       328       26.987211    9.188530   12.680185   x
            x    C       329       35.053895    9.188442   12.678793   x
            x    C       330       43.124449    9.189195   12.678618   x
            x    C       331       53.886681    9.188861   12.674833   x
            x    C       332       61.957375    9.188085   12.674895   x
            x    C       333        5.453777    9.188909   12.678108   x
            x    C       334       21.620492    9.189029   12.667761   x
            x    C       335       29.676479    9.188327   12.679123   x
            x    C       336       37.743768    9.188864   12.678212   x
            x    C       337       45.814077    9.189224   12.676994   x
            x    C       338       10.821008    9.189876   12.670507   x
            x    C       339       47.160509   11.517376   12.676980   x
            x    C       340       55.232597   11.517904   12.675536   x
            x    C       341       63.302108   11.518069   12.676200   x
            x    C       342       31.020365   11.518751   12.679395   x
            x    C       343       39.088886   11.518232   12.678913   x
            x    C       344       49.850726   11.517485   12.675373   x
            x    C       345       57.922692   11.517794   12.674924   x
            x    C       346        1.421018   11.519018   12.676484   x
            x    C       347       33.709790   11.518294   12.677802   x
            x    C       348       41.778778   11.517793   12.677719   x
            x    C       349        6.796733   11.521051   12.677238   x
            x    C       350       22.955635   11.522300   12.668879   x
            x    C       351       25.644610   11.520178   12.677063   x
            x    C       352        9.484981   11.523442   12.668882   x
            x    C       353       45.814277   13.845572   12.676670   x
            x    C       354       43.123882   13.846605   12.678041   x
            x    C       355       51.196767   13.845738   12.676544   x
            x    C       356       59.267755   13.847398   12.675502   x
            x    C       357       35.053739   13.848215   12.678380   x
            x    C       358       53.887029   13.846392   12.675005   x
            x    C       359       61.957863   13.848335   12.674795   x
            x    C       360       29.676149   13.849311   12.678673   x
            x    C       361       37.743359   13.847272   12.677578   x
            x    C       362        2.764856   13.849694   12.678617   x
            x    C       363       26.986687   13.851256   12.679652   x
            x    C       364        5.453625   13.852047   12.678168   x
            x    C       365       10.831226   13.856353   12.667596   x
            x    C       366       47.160638   16.173713   12.679454   x
            x    C       367       55.233502   16.175495   12.676849   x
            x    C       368       41.777861   16.175458   12.678021   x
            x    C       369       49.850553   16.173388   12.678136   x
            x    C       370       39.087814   16.176671   12.678380   x
            x    C       371       63.302731   16.177983   12.676231   x
            x    C       372       31.019679   16.179162   12.678284   x
            x    C       373       57.923888   16.176839   12.674881   x
            x    C       374       33.709071   16.177406   12.676996   x
            x    C       375        6.798431   16.181977   12.680024   x
            x    C       376        1.421571   16.179517   12.677152   x
            x    C       377       25.642052   16.181027   12.678139   x
            x    C       378       22.951500   16.184197   12.674976   x
            x    C       379        9.488446   16.185935   12.675992   x
            x    C       380       51.197859   18.501861   12.680603   x
            x    C       381       45.812787   18.501551   12.681253   x
            x    C       382       43.122353   18.504613   12.681477   x
            x    C       383       53.888934   18.504507   12.678034   x
            x    C       384       35.052263   18.507407   12.677293   x
            x    C       385       59.269768   18.506262   12.676611   x
            x    C       386       37.741679   18.506015   12.677189   x
            x    C       387       61.959126   18.507655   12.675466   x
            x    C       388       29.674368   18.508600   12.676830   x
            x    C       389        2.766113   18.509414   12.678860   x
            x    C       390       26.984877   18.510565   12.678903   x
            x    C       391        5.455462   18.511795   12.679708   x
            x    C       392       10.836204   18.514477   12.679737   x
            x    C       393       18.912424   18.516751   12.673478   x
            x    C       394       21.603579   18.513468   12.676022   x
            x    C       395       13.526739   18.517671   12.674510   x
            x    C       396       47.158933   20.829716   12.683087   x
            x    C       397       49.852327   20.829467   12.680474   x
            x    C       398       55.236894   20.833525   12.679445   x
            x    C       399       41.774684   20.833147   12.680970   x
            x    C       400       31.018062   20.838447   12.676520   x
            x    C       401       39.084956   20.836093   12.679671   x
            x    C       402       63.304257   20.837393   12.677533   x
            x    C       403       33.707566   20.837106   12.675921   x
            x    C       404       57.927100   20.835897   12.677882   x
            x    C       405        1.423201   20.839326   12.677201   x
            x    C       406        6.801793   20.841129   12.680658   x
            x    C       407       22.948550   20.842007   12.678885   x
            x    C       408       25.638820   20.840006   12.677059   x
            x    C       409       14.874880   20.845425   12.679699   x
            x    C       410        9.491635   20.843212   12.680842   x
            x    C       411       17.565076   20.845368   12.677832   x
            x    C       412       51.205108   23.153338   12.679294   x
            x    C       413       45.805862   23.153112   12.681181   x
            x    C       414       43.117522   23.163120   12.680474   x
            x    C       415       59.271809   23.165540   12.679472   x
            x    C       416       37.739550   23.165389   12.678492   x
            x    C       417       53.893984   23.162643   12.676503   x
            x    C       418       26.982882   23.169198   12.675982   x
            x    C       419       35.050732   23.167173   12.677675   x
            x    C       420        2.767961   23.168757   12.678622   x
            x    C       421       29.673057   23.168109   12.674837   x
            x    C       422       61.961157   23.167415   12.677736   x
            x    C       423       10.838145   23.171730   12.680633   x
            x    C       424       18.911402   23.172738   12.679396   x
            x    C       425        5.457525   23.170064   12.678454   x
            x    C       426       21.601836   23.170996   12.677150   x
            x    C       427       13.528705   23.173327   12.679911   x
            x    C       428       55.240799   25.495149   12.675428   x
            x    C       429       31.017273   25.498252   12.675907   x
            x    C       430       39.082284   25.496971   12.679687   x
            x    C       431       63.305432   25.497935   12.679033   x
            x    C       432        6.803336   25.499345   12.679284   x
            x    C       433       25.637727   25.498911   12.674697   x
            x    C       434       33.706481   25.497449   12.676359   x
            x    C       435       41.770955   25.495683   12.675963   x
            x    C       436       57.930032   25.496815   12.678318   x
            x    C       437        1.424250   25.498479   12.677850   x
            x    C       438       22.947437   25.499468   12.676242   x
            x    C       439       14.875282   25.501216   12.678879   x
            x    C       440        9.493335   25.500320   12.678473   x
            x    C       441       17.565299   25.500917   12.677391   x
            x    C       442       18.911373   27.828986   12.676343   x
            x    C       443       26.982430   27.828258   12.675609   x
            x    C       444       35.049945   27.828269   12.678249   x
            x    C       445       59.272431   27.828411   12.680185   x
            x    C       446        2.768675   27.828323   12.678793   x
            x    C       447       10.839228   27.829076   12.678618   x
            x    C       448       21.601461   27.828741   12.674833   x
            x    C       449       29.672155   27.827965   12.674895   x
            x    C       450       37.738997   27.828790   12.678108   x
            x    C       451       53.905712   27.828910   12.667761   x
            x    C       452       61.961699   27.828208   12.679123   x
            x    C       453        5.458548   27.828745   12.678212   x
            x    C       454       13.528856   27.829105   12.676994   x
            x    C       455       43.106228   27.829757   12.670507   x
            x    C       456       14.875289   30.157256   12.676980   x
            x    C       457       22.947377   30.157785   12.675536   x
            x    C       458       31.016888   30.157949   12.676200   x
            x    C       459       63.305585   30.158631   12.679395   x
            x    C       460        6.803666   30.158113   12.678913   x
            x    C       461       17.565506   30.157365   12.675373   x
            x    C       462       25.637472   30.157675   12.674924   x
            x    C       463       33.706238   30.158898   12.676484   x
            x    C       464        1.424570   30.158175   12.677802   x
            x    C       465        9.493558   30.157674   12.677719   x
            x    C       466       39.081954   30.160932   12.677238   x
            x    C       467       55.240855   30.162181   12.668879   x
            x    C       468       57.929831   30.160059   12.677063   x
            x    C       469       41.770201   30.163323   12.668882   x
            x    C       470       13.529057   32.485453   12.676670   x
            x    C       471       10.838662   32.486486   12.678041   x
            x    C       472       18.911547   32.485619   12.676544   x
            x    C       473       26.982535   32.487279   12.675502   x
            x    C       474        2.768519   32.488096   12.678380   x
            x    C       475       21.601808   32.486273   12.675005   x
            x    C       476       29.672643   32.488216   12.674795   x
            x    C       477       61.961370   32.489192   12.678673   x
            x    C       478        5.458139   32.487152   12.677578   x
            x    C       479       35.050076   32.489575   12.678617   x
            x    C       480       59.271908   32.491137   12.679652   x
            x    C       481       37.738846   32.491928   12.678168   x
            x    C       482       43.116447   32.496233   12.667596   x
            x    C       483       14.875418   34.813593   12.679454   x
            x    C       484       22.948282   34.815375   12.676849   x
            x    C       485        9.492640   34.815339   12.678021   x
            x    C       486       17.565333   34.813269   12.678136   x
            x    C       487        6.802593   34.816551   12.678380   x
            x    C       488       31.017511   34.817863   12.676231   x
            x    C       489       63.304899   34.819043   12.678284   x
            x    C       490       25.638668   34.816719   12.674881   x
            x    C       491        1.423850   34.817287   12.676996   x
            x    C       492       39.083652   34.821858   12.680024   x
            x    C       493       33.706792   34.819398   12.677152   x
            x    C       494       57.927272   34.820907   12.678139   x
            x    C       495       55.236720   34.824077   12.674976   x
            x    C       496       41.773667   34.825816   12.675992   x
            x    C       497       18.912639   37.141742   12.680603   x
            x    C       498       13.527567   37.141431   12.681253   x
            x    C       499       10.837133   37.144494   12.681477   x
            x    C       500       21.603714   37.144388   12.678034   x
            x    C       501        2.767043   37.147288   12.677293   x
            x    C       502       26.984547   37.146142   12.676611   x
            x    C       503        5.456459   37.145896   12.677189   x
            x    C       504       29.673906   37.147536   12.675466   x
            x    C       505       61.959589   37.148481   12.676830   x
            x    C       506       35.051333   37.149295   12.678860   x
            x    C       507       59.270097   37.150446   12.678903   x
            x    C       508       37.740682   37.151676   12.679708   x
            x    C       509       43.121424   37.154358   12.679737   x
            x    C       510       51.197644   37.156632   12.673478   x
            x    C       511       53.888800   37.153348   12.676022   x
            x    C       512       45.811959   37.157551   12.674510   x
            xxxxxxxxxxxxxxxxxxxxxxxxxxxxxxxxxxxxxxxxxxxxxxxxxxxxxxxxxxxx
 

Determining parallel strategy ...
... using space-filling curve
... NGWF load balancing: max     16;  min     16;  average     16
... Projector load balancing: max      4;  min      4;  average      4
... done
Calculating Ewald energy ...
              Ewald: real-space energy =        29111.980286
        Ewald: reciprocal-space energy =       125063.411420
         Ewald: (sum_charge)**2 energy =         3408.245278
         Ewald: (sum_charge**2) energy =          301.249168
                          Ewald energy =       150465.897259
======================= Empirical dispersion information =======================
Model : Grimme D2
Dispersion Correction Energy: -0.15950390E+01 Hartree
================================================================================
Basis initialisation ...... NGWF spheres initialised
... Projector spheres initialised
... NGWF tight boxes initialised
... Tight-boxes gathered
... NGWF basis size (local,global):        252484     32293472
... Nonlocal pseudopotential projector initialisation
... done

========================== Sparse matrix information ===========================
                        Overlap matrix filling:  29.59%
                        Density kernel filling: 100.00% (known to be dense)
              NGWF-Proj overlap matrix filling:   7.32%
                    Hamiltonian matrix filling:  30.76%
                  NGWF diagonal matrix filling:   0.20%
                             KS matrix filling: 100.00% 
                           KSKS matrix filling: 100.00% 
================================================================================

Sparse matrix initialisation ... done

Generating smeared ion density ... done
Smeared ion self correction:     -4085.168951
Smeared ion non-self correction: -150480.909978
IS: Initialising Boltzmann terms in implicit solvation...
----------------------------------------------------------
|           Boltzmann ions in implicit solvent:          |
+--------------------------------------------------------+
|       Name | Charge |  Conc. (mol/L)  |  Conc. (a.u.)  |
|         Li |  1.000 |    0.10000E+01  |   0.89239E-04  |
|        PF6 | -1.000 |    0.10000E+01  |   0.89239E-04  |
----------------------------------------------------------

IS: Generating smoothed hard-core steric potential ...
IS: - smearing:        0.40000E+00 bohr.
---------------------------------------------------------------
|      Atomic hard-core steric potential radial cut-offs      |
+-------------------------------------------------------------+
|   Species |   Symbol |            Radial cut-off (bohr)     |
|           |          |     solute      solvent        total |
|         1 |        C |   3.308495 +   3.000000 =   6.308495 |
---------------------------------------------------------------

IS: Debye length is    6.18 bohr. PB equation variant: FULL. Use_fas: F.
IS: Exp_cap:   50.00. Steric pot: SMOOTHED SPHERES.
NGWF initialisation ... done
============ Calculation of NGWF S^-1 using Hotelling algorithm ================ 
         Iteration  |  Frobenius norm and Maximum abs value    (of I-S*S_n^-1)   
               1       0.43588283E+02     0.97195794E+00
               2       0.42297179E+02     0.94592232E+00
               3       0.40426996E+02     0.89901333E+00
               4       0.38094216E+02     0.82133345E+00
               5       0.35382221E+02     0.70954305E+00
               6       0.32381059E+02     0.65875995E+00
               7       0.29397844E+02     0.61819681E+00
               8       0.26494365E+02     0.58324721E+00
               9       0.23214390E+02     0.53798983E+00
              10       0.18990302E+02     0.46339096E+00
              11       0.13603386E+02     0.34738832E+00
              12       0.77215631E+01     0.20095674E+00
              13       0.29003074E+01     0.72429237E-01
              14       0.48079649E+00     0.10870556E-01
              15       0.15042819E-01     0.29790777E-03
              16       0.17828512E-04     0.27880862E-06
              17       0.36721164E-10     0.36670667E-12
================================================================================
Calculating core density ... ... done

Generating solute cavity for implicit solvation ... done
MG DL_MG: Calling solver with defect correction order = 8
MG DL_MG: Solver finished
MG Fixed charge (1/2 \int rho_f phi dr) energy term:                 617.178616
MG Mobile charge (1/2 \int rho_m phi dr) energy term:                 -0.000000
MG Osmotic pressure (-kT \int dr \sum_i c_i(r)) energy term:          -0.068988
MG Mobile ion acc. corr. (\int dr \sum_i c_i(r) * V_steric(r)):        0.000167
MG Ion atmosph. rearr. (kT \int dr \sum_i c_i(r)*ln(c_i(r)/c^0):      -0.000166
MG Chemical potential (-\sum_i \mu_i \int dr c_i(r)) energy term:      0.000000
MG                                                               --------------
MG Mean-field contribution to grand potential                        617.109629

MG Check from alternate expression:
MG Fixed charge (1/2 \int rho_f phi dr) energy term:                 617.178616
MG Minus mobile charge (-1/2 \int rho_m phi dr) energy term:           0.000000
MG -kTV\Gamma \sum_i c^bulk_i(r) (osmotic pressure) energy term:      -0.068988
MG                                                               --------------
MG Mean-field contribution to grand potential:                       617.109629

IS: MG box volume:     455016.600 a0^3. Accessible fraction: 0.899704. PBC.
IS: Charge neutralisation scheme: COUNTERIONS_AUTO.

+--------------------------- Chemical potential --------------------------+
|   # | Name | Bulk conc. |    mu_ideal   |   mu_excess   |    mu_total   |
|-------------------------------------------------------------------------|
|   1 |   Li |  1.0000061 |   0.000000006 |  -0.000000006 |   0.000000000 |
|   2 |  PF6 |  1.0000061 |   0.000000006 |  -0.000000006 |  -0.000000000 |
|-------------------------------------------------------------------------|

+----------------- Boltzmann ion concentration and charge -----------------+
|   # | Name | Bulk conc. | Average conc. | Neutr. ratio |    Total charge |
|--------------------------------------------------------------------------|
|   1 |   Li |  1.0000061 |   1.000006129 | 0.222201E+09 |    36.532861999 | 
|   2 |  PF6 |  1.0000061 |   1.000006129 | -.222201E+09 |   -36.532861999 | 
+--------------------------------------------------------------------------+
                                                    total:    -0.000000000*

+---- Concentration difference from bulk value on simcell faces (mol/L) ---+
|   # | Name | Face | Bulk conc. | Actual conc. |  Difference |  RMS diff. |
|--------------------------------------------------------------------------|
+         There are no fully electrolyte-accessible simcell faces.         +
+--------------------------------------------------------------------------+
Up spin density kernel initialisation ...... done
Down spin density kernel initialisation ...... done

Writing density kernel to file "graphite.dkn" ... done

>>> Optimising kernel for current NGWFs:

--------------------------- Ensemble-DFT optimisation --------------------------
Running ScaLAPACK on  128 processor(s).

Reusing previously generated solute cavity.
MG DL_MG: Calling solver with defect correction order = 8
MG DL_MG: Solver finished
MG Fixed charge (1/2 \int rho_f phi dr) energy term:                 584.963999
MG Mobile charge (1/2 \int rho_m phi dr) energy term:                 -0.196911
MG Osmotic pressure (-kT \int dr \sum_i c_i(r)) energy term:          -0.163524
MG Mobile ion acc. corr. (\int dr \sum_i c_i(r) * V_steric(r)):        0.047901
MG Ion atmosph. rearr. (kT \int dr \sum_i c_i(r)*ln(c_i(r)/c^0):       0.408264
MG Chemical potential (-\sum_i \mu_i \int dr c_i(r)) energy term:     -0.062343
MG                                                               --------------
MG Mean-field contribution to grand potential                        584.997385

MG Check from alternate expression:
MG Fixed charge (1/2 \int rho_f phi dr) energy term:                 584.963999
MG Minus mobile charge (-1/2 \int rho_m phi dr) energy term:           0.196911
MG -kTV\Gamma \sum_i c^bulk_i(r) (osmotic pressure) energy term:      -0.163524
MG                                                               --------------
MG Mean-field contribution to grand potential:                       584.997386

IS: MG box volume:     455016.600 a0^3. Accessible fraction: 0.899704. PBC.
IS: Charge neutralisation scheme: COUNTERIONS_AUTO.

+--------------------------- Chemical potential --------------------------+
|   # | Name | Bulk conc. |    mu_ideal   |   mu_excess   |    mu_total   |
|-------------------------------------------------------------------------|
|   1 |   Li |  4.0798863 |   0.001327589 |  -0.000828475 |   0.000499115 |
|   2 |  PF6 |  0.6608146 |  -0.000391159 |  -0.000107956 |  -0.000499115 |
|-------------------------------------------------------------------------|

+----------------- Boltzmann ion concentration and charge -----------------+
|   # | Name | Bulk conc. | Average conc. | Neutr. ratio |    Total charge |
|--------------------------------------------------------------------------|
|   1 |   Li |  4.0798863 |   4.079899805 |     0.900796 |   149.049503011 | 
|   2 |  PF6 |  0.6608146 |   0.660814778 |     0.099204 |   -24.141307114 | 
+--------------------------------------------------------------------------+
                                                    total:   124.908195897*

+---- Concentration difference from bulk value on simcell faces (mol/L) ---+
|   # | Name | Face | Bulk conc. | Actual conc. |  Difference |  RMS diff. |
|--------------------------------------------------------------------------|
+         There are no fully electrolyte-accessible simcell faces.         +
+--------------------------------------------------------------------------+

Reusing previously generated solute cavity.
MG DL_MG: Calling solver with defect correction order = 8
MG DL_MG: Solver finished
MG Fixed charge (1/2 \int rho_f phi dr) energy term:                 624.525885
MG Mobile charge (1/2 \int rho_m phi dr) energy term:                 -0.000001
MG Osmotic pressure (-kT \int dr \sum_i c_i(r)) energy term:          -0.068988
MG Mobile ion acc. corr. (\int dr \sum_i c_i(r) * V_steric(r)):        0.000167
MG Ion atmosph. rearr. (kT \int dr \sum_i c_i(r)*ln(c_i(r)/c^0):      -0.000165
MG Chemical potential (-\sum_i \mu_i \int dr c_i(r)) energy term:      0.000000
MG                                                               --------------
MG Mean-field contribution to grand potential                        624.456898

MG Check from alternate expression:
MG Fixed charge (1/2 \int rho_f phi dr) energy term:                 624.525885
MG Minus mobile charge (-1/2 \int rho_m phi dr) energy term:           0.000001
MG -kTV\Gamma \sum_i c^bulk_i(r) (osmotic pressure) energy term:      -0.068988
MG                                                               --------------
MG Mean-field contribution to grand potential:                       624.456898

IS: MG box volume:     455016.600 a0^3. Accessible fraction: 0.899704. PBC.
IS: Charge neutralisation scheme: COUNTERIONS_AUTO.

+--------------------------- Chemical potential --------------------------+
|   # | Name | Bulk conc. |    mu_ideal   |   mu_excess   |    mu_total   |
|-------------------------------------------------------------------------|
|   1 |   Li |  1.0000165 |   0.000000016 |  -0.000000015 |   0.000000000 |
|   2 |  PF6 |  1.0000165 |   0.000000016 |  -0.000000016 |  -0.000000000 |
|-------------------------------------------------------------------------|

+----------------- Boltzmann ion concentration and charge -----------------+
|   # | Name | Bulk conc. | Average conc. | Neutr. ratio |    Total charge |
|--------------------------------------------------------------------------|
|   1 |   Li |  1.0000165 |   1.000016504 | -.158201E+10 |    36.533241021 | 
|   2 |  PF6 |  1.0000165 |   1.000016504 | 0.158201E+10 |   -36.533241021 | 
+--------------------------------------------------------------------------+
                                                    total:    -0.000000000*

+---- Concentration difference from bulk value on simcell faces (mol/L) ---+
|   # | Name | Face | Bulk conc. | Actual conc. |  Difference |  RMS diff. |
|--------------------------------------------------------------------------|
+         There are no fully electrolyte-accessible simcell faces.         +
+--------------------------------------------------------------------------+

--------------------------------------------------------------------------------
  Iter                              Commutator    Grand pot.(L=E-TS-muN)  DeltaL
#    0                          0.000091668801   -2626.93606946156342  -2.63E+03

Step                       =       0.381966011250
Energy (E)                 =   -2959.435070562438
Entropy (-TS)              =      -0.161763147156
Chemical potential (-muN)  =     332.660764248031
Grand potential(L=E-TS-muN)=   -2626.936069461563
Est. 0K Energy 0.5*(E+L)   =   -2793.185570012001
Charge on quantum system   =    -124.907708737337
Residual Non-orthogonality =      -0.000000000000

Spin          Integrated_Ne            Fermi_level   Delta_Integrated_Ne
   1      1024.000000000000        -0.162432013793              0.00E+00
   2      1024.000000000000        -0.162432013793              2.27E-13

                           Spin 1           |                 Spin 2           |
     Orb |    H-eigenvalues     Occupancies |    H-eigenvalues     Occupancies |
       1 |    -0.9764958109    1.0000000000 |    -0.9764958109    1.0000000000 | 
                          ------                             ------
    1082 |    -0.1669983057    0.7760077859 |    -0.1669983057    0.7760077859 | 
    1083 |    -0.1666778387    0.7604863479 |    -0.1666778387    0.7604863479 | 
    1084 |    -0.1666617994    0.7596904614 |    -0.1666617994    0.7596904614 | 
    1085 |    -0.1666559124    0.7593978902 |    -0.1666559124    0.7593978902 | 
    1086 |    -0.1666008568    0.7566499692 |    -0.1666008568    0.7566499692 | 
                         Fermi level         |             Fermi level        
    1087 |    -0.1584712143    0.2539247708 |    -0.1584712143    0.2539247708 | 
    1088 |    -0.1584000581    0.2502740974 |    -0.1584000581    0.2502740974 | 
    1089 |    -0.1580077499    0.2307815382 |    -0.1580077499    0.2307815382 | 
    1090 |    -0.1579545381    0.2282211168 |    -0.1579545381    0.2282211168 | 
    1091 |    -0.1579413799    0.2275910664 |    -0.1579413799    0.2275910664 | 
                          ------                             ------
    2048 |     0.6065572394    0.0000000000 |     0.6065572394    0.0000000000 | 

                            |  Abs_value |  Threshold | Converged
     Delta_Free_energy/atom |   5.13E+00 |   1.00E-06 |        No
     Delta_Energy/atom      |   5.78E+00 |   1.00E-04 |        No
     Delta_Entropy/atom     |   3.16E-04 |   1.00E-04 |        No
     Commutator             |   9.17E-05 |   1.00E-05 |        No
     Delta_Int_Ne/atom      |   4.44E-16 |   1.00E-06 |       Yes

  Line search of the free energy minimum:
  Step_type        Step             Free_energy   Predicted_free_energy
.   Initial    0.000000    -2626.93606946156342

Reusing previously generated solute cavity.
MG DL_MG: Calling solver with defect correction order = 8
MG DL_MG: Solver finished
MG Fixed charge (1/2 \int rho_f phi dr) energy term:                 613.208971
MG Mobile charge (1/2 \int rho_m phi dr) energy term:                 -0.353477
MG Osmotic pressure (-kT \int dr \sum_i c_i(r)) energy term:          -0.220098
MG Mobile ion acc. corr. (\int dr \sum_i c_i(r) * V_steric(r)):        0.119792
MG Ion atmosph. rearr. (kT \int dr \sum_i c_i(r)*ln(c_i(r)/c^0):       0.720253
MG Chemical potential (-\sum_i \mu_i \int dr c_i(r)) energy term:     -0.133089
MG                                                               --------------
MG Mean-field contribution to grand potential                        613.342351

MG Check from alternate expression:
MG Fixed charge (1/2 \int rho_f phi dr) energy term:                 613.208971
MG Minus mobile charge (-1/2 \int rho_m phi dr) energy term:           0.353477
MG -kTV\Gamma \sum_i c^bulk_i(r) (osmotic pressure) energy term:      -0.220097
MG                                                               --------------
MG Mean-field contribution to grand potential:                       613.342351

IS: MG box volume:     455016.600 a0^3. Accessible fraction: 0.899704. PBC.
IS: Charge neutralisation scheme: COUNTERIONS_AUTO.

+--------------------------- Chemical potential --------------------------+
|   # | Name | Bulk conc. |    mu_ideal   |   mu_excess   |    mu_total   |
|-------------------------------------------------------------------------|
|   1 |   Li |  5.8433078 |   0.001666767 |  -0.000980160 |   0.000686607 |
|   2 |  PF6 |  0.5374997 |  -0.000586176 |  -0.000100431 |  -0.000686607 |
|-------------------------------------------------------------------------|

+----------------- Boltzmann ion concentration and charge -----------------+
|   # | Name | Bulk conc. | Average conc. | Neutr. ratio |    Total charge |
|--------------------------------------------------------------------------|
|   1 |   Li |  5.8433078 |   5.843332072 |     0.912831 |   213.472335798 | 
|   2 |  PF6 |  0.5374997 |   0.537499762 |     0.087169 |   -19.636284277 | 
+--------------------------------------------------------------------------+
                                                    total:   193.836051521*

+---- Concentration difference from bulk value on simcell faces (mol/L) ---+
|   # | Name | Face | Bulk conc. | Actual conc. |  Difference |  RMS diff. |
|--------------------------------------------------------------------------|
+         There are no fully electrolyte-accessible simcell faces.         +
+--------------------------------------------------------------------------+
.    Trial1    0.381966    -2538.30380904725780

Reusing previously generated solute cavity.
MG DL_MG: Calling solver with defect correction order = 8
MG DL_MG: Solver finished
MG Fixed charge (1/2 \int rho_f phi dr) energy term:                 593.675872
MG Mobile charge (1/2 \int rho_m phi dr) energy term:                 -0.267199
MG Osmotic pressure (-kT \int dr \sum_i c_i(r)) energy term:          -0.189828
MG Mobile ion acc. corr. (\int dr \sum_i c_i(r) * V_steric(r)):        0.077214
MG Ion atmosph. rearr. (kT \int dr \sum_i c_i(r)*ln(c_i(r)/c^0):       0.550551
MG Chemical potential (-\sum_i \mu_i \int dr c_i(r)) energy term:     -0.093367
MG                                                               --------------
MG Mean-field contribution to grand potential                        593.753243

MG Check from alternate expression:
MG Fixed charge (1/2 \int rho_f phi dr) energy term:                 593.675872
MG Minus mobile charge (-1/2 \int rho_m phi dr) energy term:           0.267199
MG -kTV\Gamma \sum_i c^bulk_i(r) (osmotic pressure) energy term:      -0.189828
MG                                                               --------------
MG Mean-field contribution to grand potential:                       593.753243

IS: MG box volume:     455016.600 a0^3. Accessible fraction: 0.899704. PBC.
IS: Charge neutralisation scheme: COUNTERIONS_AUTO.

+--------------------------- Chemical potential --------------------------+
|   # | Name | Bulk conc. |    mu_ideal   |   mu_excess   |    mu_total   |
|-------------------------------------------------------------------------|
|   1 |   Li |  4.9071449 |   0.001501908 |  -0.000909076 |   0.000592831 |
|   2 |  PF6 |  0.5961363 |  -0.000488414 |  -0.000104418 |  -0.000592831 |
|-------------------------------------------------------------------------|

+----------------- Boltzmann ion concentration and charge -----------------+
|   # | Name | Bulk conc. | Average conc. | Neutr. ratio |    Total charge |
|--------------------------------------------------------------------------|
|   1 |   Li |  4.9071449 |   4.907163245 |     0.906318 |   179.271618865 | 
[...]
 C   297 -- C   498       -0.08     -0.00      5.38366
 C   381 -- C   414       -0.08     -0.00      5.38369
 C   484 -- C   486       -0.08      0.00      5.38370
 C   365 -- C   395       -0.08     -0.00      5.38373
 C   353 -- C   355       -0.08      0.00      5.38373
 C   351 -- C   378       -0.08      0.00      5.38373
 C   367 -- C   369       -0.08      0.00      5.38374
 C   470 -- C   472       -0.08      0.00      5.38375
 C   318 -- C   349       -0.08     -0.00      5.38376
 C   435 -- C   466       -0.08     -0.00      5.38377
 C   482 -- C   512       -0.08     -0.00      5.38378
 C   468 -- C   495       -0.08      0.00      5.38380
 C   349 -- C   379       -0.08      0.00      5.38380
 C   466 -- C   496       -0.08      0.00      5.38384
 C   409 -- C   410       -0.08      0.00      5.38394
 C   292 -- C   293       -0.08      0.00      5.38395
 C   319 -- C   350       -0.08     -0.00      5.38400
 C   436 -- C   467       -0.08     -0.00      5.38406
 C   307 -- C   310       -0.08     -0.00      5.38406
 C   424 -- C   427       -0.08     -0.00      5.38408
 C   407 -- C   411       -0.08      0.00      5.38414
 C   257 -- C   267       -0.08     -0.00      5.38416
 C   290 -- C   294       -0.08      0.00      5.38417
 C   313 -- C   352       -0.08     -0.00      5.38418
 C   274 -- C   510       -0.08     -0.00      5.38419
 C   430 -- C   469       -0.08     -0.00      5.38422
 C   267 -- C   393       -0.08     -0.00      5.38423
 C   259 -- C   271       -0.08     -0.00      5.38424
 C   261 -- C   274       -0.08     -0.00      5.38424
 C   263 -- C   278       -0.08     -0.00      5.38429
 C   266 -- C   279       -0.08     -0.00      5.38492
 C   273 -- C   396       -0.08     -0.00      5.38499
 C   258 -- C   365       -0.08     -0.00      5.38500
 C   262 -- C   482       -0.08     -0.00      5.38507
 C   265 -- C   280       -0.08      0.00      5.38518
 C   272 -- C   397       -0.08      0.00      5.38519
 C   260 -- C   270       -0.08      0.00      5.38524
 C   262 -- C   414       -0.08     -0.00      5.38529
 C   258 -- C   297       -0.08     -0.00      5.38531
 C   264 -- C   277       -0.08      0.00      5.38532
 C   380 -- C   381       -0.08     -0.00      5.38537
 C   497 -- C   498       -0.08     -0.00      5.38539
 C   257 -- C   300       -0.08      0.00      5.38539
 C   261 -- C   417       -0.08      0.00      5.38540
 C   396 -- C   399       -0.08      0.00      5.38541
 C   279 -- C   282       -0.08      0.00      5.38547
 C   397 -- C   398       -0.08      0.00      5.38579
 C   280 -- C   281       -0.08      0.00      5.38581
 C   277 -- C   496       -0.08      0.00      5.38583
 C   270 -- C   379       -0.08      0.00      5.38586
 C   393 -- C   395       -0.08     -0.00      5.38590
 C   510 -- C   512       -0.08     -0.00      5.38591
 C   278 -- C   495       -0.08      0.00      5.38622
 C   271 -- C   378       -0.08      0.00      5.38624
 C   412 -- C   451       -0.08     -0.00      5.38644
 C   295 -- C   334       -0.08     -0.00      5.38645
 C   265 -- C   318       -0.08     -0.00      5.38656
 C   272 -- C   435       -0.08     -0.00      5.38658
 C   259 -- C   352       -0.08      0.00      5.38665
 C   263 -- C   469       -0.08      0.00      5.38665
 C   266 -- C   311       -0.08     -0.00      5.38682
 C   413 -- C   455       -0.08      0.00      5.38683
 C   273 -- C   428       -0.08     -0.00      5.38685
 C   296 -- C   338       -0.08      0.00      5.38686
 C   269 -- C   338       -0.08      0.00      5.38687
 C   276 -- C   455       -0.08      0.00      5.38692
 C   260 -- C   350       -0.08      0.00      5.38717
 C   264 -- C   272       -0.08     -0.00      5.38722
 C   264 -- C   467       -0.08     -0.00      5.38724
 C   260 -- C   265       -0.08     -0.00      5.38731
 C   268 -- C   334       -0.08      0.00      5.38734
 C   275 -- C   451       -0.08      0.00      5.38739
 C   263 -- C   273       -0.08     -0.00      5.38822
 C   259 -- C   266       -0.08     -0.00      5.38825
 C   412 -- C   413       -0.08      0.00      5.38845
 C   295 -- C   296       -0.08      0.00      5.38845
 C   275 -- C   276       -0.08      0.00      5.38898
 C   268 -- C   269       -0.08      0.00      5.38901
 C   261 -- C   262       -0.08      0.00      5.38937
 C   257 -- C   258       -0.08      0.00      5.38941
=============================================================


============== Orbital energy and occupancy information for spin 1 =============

      Total number of orbitals:    2048
        Occupancy sum (kernel):    1023.353899294
   Occupancy sum (eigenvalues):    1023.353899294
                 HOMO-LUMO gap:       0.032789153 Eh
                 Mid-gap level:      -0.149076335 Eh

                        Orbital | Energy (Eh) | Occupancy
                            1    -0.870094326   1.0000000
                        .......   ...........   .........
                         1015    -0.182569018   0.9958461
                         1016    -0.182566985   0.9958442
                         1017    -0.182501833   0.9957695
                         1018    -0.182496564   0.9957640
                         1019    -0.182298814   0.9955291
                         1020    -0.182294449   0.9955244
                         1021    -0.181411942   0.9943160
                         1022    -0.181408787   0.9943113
                         1023    -0.165471343   0.6957377
                         1024    -0.165470911   0.6957188
                        ....... -- gap at 0K -- .........
                         1025    -0.132681758   0.0003046
                         1026    -0.132678561   0.0003043
                         1027    -0.121042348   0.0000128
                         1028    -0.121040816   0.0000128
                         1029    -0.115484708   0.0000028
                         1030    -0.115481239   0.0000028
                         1031    -0.115177073   0.0000026
                         1032    -0.115172855   0.0000026
                         1033    -0.115102697   0.0000026
                         1034    -0.115101515   0.0000026
                        .......   ...........   .........
                         2048     0.762945683   0.0000000

================================================================================

============== Orbital energy and occupancy information for spin 2 =============

      Total number of orbitals:    2048
        Occupancy sum (kernel):    1023.353899293
   Occupancy sum (eigenvalues):    1023.353899293
                 HOMO-LUMO gap:       0.000000432 Eh
                 Mid-gap level:      -0.165471127 Eh

                        Orbital | Energy (Eh) | Occupancy
                            1    -0.870094326   1.0000000
                        .......   ...........   .........
                         1014    -0.194268184   0.9998271
                         1015    -0.182569018   0.9958461
                         1016    -0.182566985   0.9958442
                         1017    -0.182501833   0.9957695
                         1018    -0.182496564   0.9957640
                         1019    -0.182298814   0.9955291
                         1020    -0.182294449   0.9955244
                         1021    -0.181411942   0.9943160
                         1022    -0.181408787   0.9943113
                         1023    -0.165471343   0.6957377
                        ....... -- gap at 0K -- .........
                         1024    -0.165470911   0.6957188
                         1025    -0.132681758   0.0003046
                         1026    -0.132678561   0.0003043
                         1027    -0.121042348   0.0000128
                         1028    -0.121040816   0.0000128
                         1029    -0.115484708   0.0000028
                         1030    -0.115481239   0.0000028
                         1031    -0.115177073   0.0000026
                         1032    -0.115172855   0.0000026
                         1033    -0.115102697   0.0000026
                        .......   ...........   .........
                         2048     0.762945683   0.0000000

================================================================================

===================== Writing canonical molecular orbitals =====================
    Spin 1
| Orbital  Energy (eV)  Norm     |
| HOMO-5   -4.96060314  1.000000 | 
| HOMO-4   -4.96048436  1.000000 | 
| HOMO-3   -4.93647011  1.000000 | 
| HOMO-2   -4.93638428  1.000000 | 
| HOMO-1   -4.50270436  1.000000 | 
| HOMO     -4.50269260  1.000000 | 
| LUMO     -3.61045436  1.000000 | 
| LUMO+1   -3.61036736  1.000000 | 
| LUMO+2   -3.29372988  1.000000 | 
| LUMO+3   -3.29368821  1.000000 | 
| LUMO+4   -3.14249880  1.000000 | 
| LUMO+5   -3.14240442  1.000000 | 
================================================================================

===================== Writing canonical molecular orbitals =====================
    Spin 2
| Orbital  Energy (eV)  Norm     |
| HOMO-5   -4.96598420  1.000000 | 
| HOMO-4   -4.96060314  1.000000 | 
| HOMO-3   -4.96048436  1.000000 | 
| HOMO-2   -4.93647011  1.000000 | 
| HOMO-1   -4.93638428  1.000000 | 
| HOMO     -4.50270436  1.000000 | 
| LUMO     -4.50269260  1.000000 | 
| LUMO+1   -3.61045436  1.000000 | 
| LUMO+2   -3.61036736  1.000000 | 
| LUMO+3   -3.29372988  1.000000 | 
| LUMO+4   -3.29368821  1.000000 | 
| LUMO+5   -3.14249880  1.000000 | 
================================================================================
 
=============== Density of States (DOS) calculation for UP spin ================
Writing "graphite_UP_DOS.txt" ... done
================================================================================
 
============== Density of States (DOS) calculation for DOWN spin ===============
Writing "graphite_DN_DOS.txt" ... done
================================================================================
 
Writing bands to file "graphite.val_bands" ... done

IS: Calculating electrolyte contribution to the atomic forces ...
================================================================================
 
***********************************************************
********** Summary of Forces (values in Eh/a) *************
*                                                         *
* ---------------------- Minimum ------------------------ *
* Atom:       456, |F|min =    0.00031689                 *
* Components:     Fx|min       Fy|min       Fz|min        *
*              -0.00001751   0.00003358  -0.00031462      *
*                                                         *
* ---------------------- Maximum ------------------------ *
* Atom:       273, |F|max =    0.00155240                 *
* Components:     Fx|max       Fy|max       Fz|max        *
*               0.00078046  -0.00127298  -0.00042469      *
*                                                         *
* ---------------- Root Mean Square Force --------------- *
*                  |F|rms =    0.00051628                 *
* Components:     Fx|rms       Fy|rms       Fz|rms        *
*               0.00027807   0.00026836   0.00034235      *
***********************************************************
 

                                                      hartree           kcal/mol
IS: NB: Energy of pure electrolyte:         -0.07677335581388         -48.176007

------------------------------ TIMING INFORMATION ------------------------------
AVERAGE TIME:    7504.057s on    128 proc(s)                                    
TOTAL TIME:      7504.063s on    128 proc(s)                                    
================= AVERAGE TIMINGS FROM ALL PROCS (CUMULATIVE) ==================
|| TAG                                    #calls    cpu time   %total  Gflops ||
|| linalg_invert_sym_matrix             :     4        0.00s   0.000%  ------ || (1 procs only)
|| onetep.F90 main loop imbalance       :     1        0.00s   0.000%  ------ ||
|| onetep.F90 final imbalance           :     1        0.00s   0.000%  ------ ||
|| density_fftbox_interp_mult_imbal     : 11232        0.00s   0.000%  ------ ||
|| sparse_set_to_garbage                :   236        0.00s   0.000%  ------ ||
|| ewald_calculate_forces_realspace     :     5        0.02s   0.000%  ------ ||
|| vdwcorrection_calculate_forces       :     5        0.02s   0.000%  ------ ||
|| vdwcorrection_calculate_energy       :     5        0.02s   0.000%  ------ ||
|| ngwfs_initialise_from_radial         :     1        0.03s   0.000%  ------ ||
|| basis_extract_function_from_box      :  1216        0.08s   0.001%  ------ ||
|| pseudopotentials_core_density        :     5        0.09s   0.001%  ------ ||
|| pseudopotentials_local_on_grid       :     5        0.10s   0.001%  ------ ||
|| parallel_prepare_fd_halos_alloc      : 24093        0.13s   0.002%  ------ ||
|| restart_hamiltonian_read             :     4        0.15s   0.002%  ------ ||
|| sparse_spam3toblacs_real_fast_imbal  :  1311        0.17s   0.002%  ------ ||
|| parallel_prepare_fd_halos_request    : 24093        0.23s   0.003%  ------ ||
|| pseudopotentials_nonlocal_mat        :    32        0.25s   0.003%  ------ ||
|| sparse_blacstospam3_real_fast_imbal  :  1278        0.33s   0.004%  ------ ||
|| pseudo_make_structure_factor         :     5        0.42s   0.006%  ------ ||
|| restart_hamiltonian_write            :    18        0.71s   0.009%  ------ ||
|| sparse_spam3toblacs_real_fast_B2     : 167.8k       0.91s   0.012%  ------ ||
|| parallel_prepare_fd_halos_satisfy    : 24093        1.11s   0.015%  ------ ||
|| smeared_ion_generate_potential_PBC   :     5        1.36s   0.018%  ------ ||
|| sparse_init                          :     5        1.46s   0.019%  ------ ||
|| ngwf_gradient_coeffs                 :    18        2.12s   0.028%  ------ ||
|| integrals_grad_spam3                 :     5        2.29s   0.030%  ------ ||
|| nonsc_forces_ngwfs_calc              :     5        2.29s   0.030%  ------ ||
|| pseudo_local_calculate_forces        :     5        2.33s   0.031%  ------ ||
|| ewald_calculate_energy               :     5        2.49s   0.033%  ------ ||
|| energy_and_force_init_cell           :     1        2.50s   0.033%  ------ ||
|| restart_kernel_write                 :    23        2.81s   0.037%  ------ ||
|| density_init_guess_real              :     5        3.05s   0.041%  ------ ||
|| sparse_embed_hotelling_invert_embed  :    32        3.30s   0.044%  ------ ||
|| projectors_func_grad_ovlp_box_spam3  :    15        3.65s   0.049%  ------ ||
|| eigenstates_calculate                :     1        3.79s   0.050%  ------ ||
|| pseudo_nlcc_calculate_forces         :     5        3.83s   0.051%  ------ ||
|| restart_ngwfs_tightbox_input         :     4        3.93s   0.052%  ------ ||
|| pseudo_nl_calculate_forces           :     5        4.02s   0.054%  ------ ||
|| ewald_calculate_forces_recipspace    :     5        6.93s   0.092%  ------ ||
|| ewald_calculate_forces               :     5        6.98s   0.093%  ------ ||
|| fourier_filter_cell                  :   262        7.11s   0.095% 205.321 ||
|| projectors_func_ovlp_box_spam3       :    32        7.34s   0.098%  ------ ||
|| sparse_trace                         :  4804        7.58s   0.101%  ------ ||
|| projectors_init_fftbox_recip         :    83        8.04s   0.107%  ------ ||
|| boltzmann_init_steric_pot            :     5        8.66s   0.115%  ------ ||
|| parallel_prepare_fd_halos_comms_imbal: 24093        9.57s   0.127%  ------ ||
|| parallel_prepare_fd_halos_clear      : 24093        9.71s   0.129%  ------ ||
|| fourier_apply_box_pair               :  1448       14.01s   0.187%  1.668k ||
|| basis_copy_function_to_box           : 16048       15.17s   0.202%  ------ ||
|| parallel_prepare_fd_halos_comms_wait : 24093       16.19s   0.216%  ------ ||
|| function_ops_brappd_ketppd_spam3     :    59       17.57s   0.234%  ------ ||
|| integrals_kinetic_spam3              :    32       19.60s   0.261%  ------ ||
|| properties_calculate                 :     1       22.26s   0.297%  ------ ||
|| sparse_product                       :  2830       25.21s   0.336%  ------ ||
|| projectors_gradient_batch            :    36       27.29s   0.364%  ------ ||
|| fourier_interpolate_cell             :   702       36.24s   0.483% 107.922 ||
|| parallel_prepare_fd_halos            : 24093       37.07s   0.494%  ------ ||
|| basis_dot_function_with_box          : 2.375M      43.66s   0.582%  ------ ||
|| sparse_spam3toblacs_real_fast_B1     : 167.8k      47.04s   0.627%  ------ ||
|| fourier_apply_cell_backward          :  2893       47.90s   0.638% 169.862 ||
|| sparse_spam3toblacs_real_fast        :  1311       50.03s   0.667%  ------ ||
|| cell_grid_extract_box_real           :  4192       56.97s   0.759%  ------ ||
|| restart_ngwfs_tightbox_output        :    14       94.38s   1.258%  ------ ||
|| sparse_blacstospam3_real_fast        :  1278      100.45s   1.339%  ------ ||
|| fourier_apply_cell_forward           :  2873      101.31s   1.350%  79.752 ||
|| xc_energy_potential                  :   356      106.69s   1.422%  ------ ||
|| finite_difference_derivative         : 24093      110.27s   1.470%  ------ ||
|| integrals_locpot_mat_els_batch       :   226      114.56s   1.527%  ------ ||
|| cell_grid_deposit_box_real           : 11656      129.93s   1.731%  ------ ||
|| basis_add_function_to_box            : 8.203M     162.97s   2.172%  ------ ||
|| dense_eigensolve                     :   614      163.36s   2.177%  ------ ||
|| ngwf_gradient_build_batch            :    36      177.41s   2.364%  ------ ||
|| hamiltonian_energy_components        :     7      180.49s   2.405%  ------ ||
|| edft_diag_ngwf_ham                   :   612      208.86s   2.783%  ------ ||
|| implicit_solvent_boltzmann_forces    :     5      224.05s   2.986%  ------ ||
|| ngwf_gradient_batch                  :    36      262.52s   3.498%  ------ ||
|| ngwf_gradient_lnv                    :    18      271.05s   3.612%  ------ ||
|| density_batch_row_sums               :   702      275.27s   3.668%  ------ ||
|| edft_apply_smearing_operator         :   306      336.29s   4.481%  ------ ||
|| smeared_ion_force_correction         :    10      442.75s   5.900%  ------ ||
|| implicit_solvent_soft_sphere_forces  :     5      467.62s   6.232%  ------ ||
|| density_fftbox_deposit_to_cell       : 11232      561.54s   7.483%  ------ ||
|| potential_apply_to_ngwf_batch        :   226      696.15s   9.277%  ------ ||
|| integrals_locpot_dbl_grid            :   226      811.53s  10.815%  ------ ||
|| dl_mg_solver_calls                   :   351      869.59s  11.588%  ------ ||
|| multigrid_calculate_hartree          :   351      907.22s  12.090%  ------ ||
|| forces_calculate                     :     5     1194.45s  15.917%  ------ ||
|| fourier_apply_box                    : 34388     1305.60s  17.399%  2.045k ||
|| density_fftbox_interpolate_multiply  : 11232     1588.74s  21.172%  ------ ||
|| density_batch_interp_deposit         :   702     2603.06s  34.689%  ------ ||
|| density_on_dbl_grid                  :   702     2892.91s  38.551%  ------ ||
|| hamiltonian_lhxc_calculate           :   339     3894.24s  51.895%  ------ ||
|| edft_calculate                       :    18     4754.68s  63.361%  ------ ||
|| ngwf_cg_optimise                     :     5     5512.99s  73.467%  ------ ||
|| energy_and_forces                    :     5     7480.32s  99.684%  ------ ||
|| total_time                           :     1     7504.06s 100.000%  ------ ||
================================================================================
Overhead of generating timer report: 
- 0 ms averaging over threads,
- 12 ms ensuring consistency across MPI ranks,
- 1 ms printing in order.

Job completed: 18-10-2023 18:52 (+0100)

onetep_launcher: ONETEP seems to have finished correctly (zero exit code).
