 +---------------------------------------------------------------+
 |                                                               |
 |        ####### #     # ####### ####### ####### ######         |
 |        #     # ##    # #          #    #       #     #        |
 |        #     # # #   # #          #    #       #     #        |
 |        #     # #  #  # #####      #    #####   ######         |
 |        #     # #   # # #          #    #       #              |
 |        #     # #    ## #          #    #       #              |
 |        ####### #     # #######    #    ####### #              |
 |                                                               |
 |        Linear-Scaling Ab Initio Total Energy Program          |
 |                                                               |
 |          Release for academic collaborators of ODG            |
 |                                             Version 6.1.59    |
 | Remote: https://github.com/onetep-devel/onetep.git            |
 | Local branch: master                                          |
 | Commit ID: 3df6b8ca88fa1735659d3248d54c94b50edec21b           |
 | Date: Thu Oct 5 13:49:52 2023 +0200                           |
 | Working tree clean                                            |
 |                                                               |
 +---------------------------------------------------------------+
 |                                                               |
 |  Authors:                                                     |
 |  Jacek Dziedzic, Peter D. Haynes, Nicholas D. M. Hine,        |
 |  Arash A. Mostofi, Mike C. Payne and Chris-Kriton Skylaris    |
 |                                                               |
 |  Contributors:                                                |
 |  J. Aarons, L. Andrinopoulos, P. W. Avraam, R. A. Bell,       |
 |  A. Bhandari, G. A. Bramley, R. J. Charlton, S. J. Clark,     |
 |  R. J. Clements, G. C. Constantinescu, F. Corsetti,           |
 |  N. Corsini, O. Dieguez, S. M. M. Dubois, K. K. B. Duff,      |
 |  J. M. Escartin, M. Escobar Azor, A. Greco,                   |
 |  H. Helal, Q. O. Hill, L. P. Lee, J.-H. Li,                   |
 |  E. B. Linscott, G. Moynihan, D. D. O`Regan,                  |
 |  O. K. Okan, M. J. S. Phipps, C. J. Pickard,                  |
 |  J. C. A. Prentice, M. I. J. Probert, L. E. Ratcliff,         |
 |  M. Robinson, A. Ruiz Serrano, M. dos Santos Dias,            |
 |  J. S. Spencer, E. W. Tait, G. Teobaldi, D. Turban,           |
 |  V. Vitale, K. A. Wilkinson, C. Weber, J. C. Womack,          |
 |  N. Yeung and T. J. Zuehlsdorff                               |
 |                                                               |
 |                                   Copyright (c) 2004-2023     |
 |                                                               |
 |  Please cite:                                                 |
 |  "The ONETEP linear-scaling density functional theory program"|
 |   J. Chem. Phys. 152(17) 174111 (2020)                        |
 |                                                               |
 |          in all publications arising from your use of ONETEP. |
 |                                                               |
 +---------------------------------------------------------------+
 |                                                               |
 |   ONETEP is based on developments described in the following  |
 |   publications:                                               |
 |                                                               |
 |  "Nonorthogonal generalized Wannier function pseudopotential  |
 |   plane-wave method".                                         |
 |   C.-K. Skylaris, A. A. Mostofi, P. D. Haynes, O. Dieguez,    |
 |   M. C. Payne.                                                |
 |   Phys. Rev. B 66 035119 (2002).                              |
 |                                                               |
 |  "Preconditioned iterative minimization for linear-scaling    |
 |   electronic structure calculations".                         |
 |   A. A. Mostofi, P. D. Haynes, C.-K. Skylaris, M. C. Payne.   |
 |   J. Chem. Phys. 119(17), pp.8842-8848 (2003).                |
 |                                                               |
 |  "Total-energy calculations on a real space grid with         |
 |   localized functions and a plane-wave basis".                |
 |   A. A. Mostofi, C.-K. Skylaris, P. D. Haynes, M. C. Payne.   |
 |   Comput. Phys. Commun. 147, pp.788-802 (2002).               |
 |                                                               |
 |  "Accurate kinetic energy evaluation in electronic structure  |
 |   calculations with localized functions on real space grids"  |
 |   C.-K. Skylaris, A. A. Mostofi, P. D. Haynes, C. J. Pickard, |
 |   M. C. Payne.                                                |
 |   Comput. Phys. Commun. 140, pp.315-322 (2001).               |
 |                                                               |
 |  "Accurate ionic forces and geometry optimization in linear-  |
 |   scaling density-functional theory with local orbitals"      |
 |   N. D. M. Hine, M. Robinson, P. D. Haynes, C.-K. Skylaris,   |
 |   M. C. Payne, and A. A. Mostofi.                             |
 |   Phys. Rev. B 83 195102 (2011).                              |
 |                                                               |
 +---------------------------------------------------------------+

Job started: 31-10-2023 23:12 (+0000)
 
Reading parameters from file "graphite.dat" ...... done

If your calculation crashes here, before "Checking processes and threads..."
is displayed, then your stack size is insufficient.
If so, use "ulimit -s unlimited" at runtime.
You can disable this check with "check_stack_size F".

Checking processes and threads...
   Determining the default number of threads...
      No default threads set at compilation time: defaulting to 1.
      OpenMP library call suggests 8 threads.
      Hybrid MPI-OpenMP compilation detected.
      Number of MPI processes > 1.
      OMP_NUM_THREADS environment variable present and
      its value matches the one obtained from the OpenMP library call.
      Using this value as default.
      Default threads: 8
      Default applies to threads_max and threads_num_fftboxes.
      Settings in the input file override this default.
   ... done

   Running with 128 MPI processes.
   There are 16 MPI processes running on the same node as the root process.
   Each MPI process is using: 
               1 threads for simulation cell FFTs.
               1 threads for parallel FFT box operations.
               8 threads for loops over batched FFT box operations.
               8 threads in other parallel regions.
   MPI Interface: S1 (use mpi_f08) (-DMPI -DUSE_MPI_F08).
   MPI_ASYNC_PROTECTS_NONBLOCKING: Yes. MPI_SUBARRAYS_SUPPORTED: Yes.
   GPU Interface: None.
... done

Basic input checks...
Resetting ngwf_cg_rotate to TRUE for EDFT calculations
... done

Reading geometry and species blocks from file "graphite.dat" ...
  Reading POSITIONS geometry from str.xyz

  <species_atomic_set> block not found: NGWF initialisation set to SOLVE
IS: Dielectric excluded regions:
    - NONE.
IS: Assigning soft sphere radii for soft sphere solvation...
IS: No soft sphere radii specified. Default Alvarez radii used for all atoms.

----------- SOFT SPHERE RADII -----------
Li  5.333
C   4.442
-----------------------------------------

    
  Number of PPD points along a3 set to 1.  This is 
  the default value, it may have been provided also in the input file.
... done


--------------------------------------------------------------------------------
---------------------------------- INPUT FILE ----------------------------------
--------------------------------------------------------------------------------

task geometryoptimization                                                       
geom_method LBFGS                                                               
geom_continuation T                                                             
write_xyz T                                                                     
edft_grand_canonical T                                                          
edft_reference_potential  -4.42 eV                                              
edft_electrode_potential 0.0 V                                                  
edft_nelec_thres 0.000001                                                       
is_dielectric_function soft_sphere                                              
is_implicit_solvent T                                                           
is_smeared_ion_rep T                                                            
is_include_apolar T                                                             
is_solvation_properties F                                                       
is_pbe                    full                                                  
is_pbe_temperature        298.15                                                
is_pbe_bc_debye_screening T                                                     
is_pbe_neutralisation_scheme counterions_auto                                   
is_pbe_energy_tolerance 1E+50                                                   
is_bc_coarseness 5                                                              
is_bc_threshold 1E-9                                                            
is_bulk_permittivity 90.7                                                       
is_solvent_surf_tension 0.0506 N/m                                              
%block sol_ions                                                                 
Li  +1 1.0                                                                      
PF6 -1 1.0                                                                      
%endblock sol_ions                                                              
is_steric_pot_type M                                                            
is_hc_steric_dens_isovalue  0.001                                               
is_hc_steric_smearing         0.4 bohr                                          
is_steric_write T                                                               
%block species_solvent_radius                                                   
Li 3.0                                                                          
C 3.0                                                                           
%endblock species_solvent_radius                                                
multigrid_bc:   P P P                                                           
ion_ion_bc:     P P P                                                           
pspot_bc:       P P P                                                           
smeared_ion_bc: P P P                                                           
mg_max_iters_vcycle 500                                                         
mg_vcyc_smoother_iter_pre 4                                                     
mg_vcyc_smoother_iter_post 4                                                    
mg_max_res_ratio 1000.0                                                         
mg_max_iters_newton 300                                                         
edft                    : T                                                     
edft_smearing_width     : 0.1 eV                                                
spin                    : 0.0                                                   
edft_spin_fix           : 2                                                     
spin_polarized          : T                                                     
cutoff_energy :  1000 eV                                                        
kernel_cutoff : 1000 bohr                                                       
xc_functional PBE                                                               
dispersion 4                                                                    
output_detail VERBOSE                                                           
do_properties T                                                                 
cube_format F                                                                   
dx_format F                                                                     
write_denskern T                                                                
write_tightbox_ngwfs T                                                          
write_hamiltonian T                                                             
%block species                                                                  
Li Li 3  5  8.0                                                                 
C  C  6  4  8.0                                                                 
%endblock species                                                               
%block species_pot                                                              
Li '/work/e89/e89/arihant/pseudo/Li.usp'                                        
C '/work/e89/e89/arihant/pseudo/C.usp'                                          
%endblock species_pot                                                           
%BLOCK LATTICE_CART                                                             
ang                                                                             
34.16920551     0.00000000     0.00000000                                       
0.00000000    19.72760000     0.00000000                                        
0.00000000     0.00000000   100.02798000                                        
%ENDBLOCK LATTICE_CART                                                          
positions_xyz_file str.xyz                                                      
     Hash =   000003243578367988830538

--------------------------------------------------------------------------------
-------------------------------- END INPUT FILE --------------------------------
--------------------------------------------------------------------------------


 
 ESDF WARNING(1): "ispbeenergytolerance" (esdf_physical) has no units. Assume "hartree".
<<<<<<<<<<<<<<<<<<<<<<<<<<<<<<<<< Full system >>>>>>>>>>>>>>>>>>>>>>>>>>>>>>>>>>
<<<<<<<<<<<<<<<<<<<<<<<<< Pseudopotential information >>>>>>>>>>>>>>>>>>>>>>>>>>
File: /work/e89/e89/arihant/pseudo/Li.usp [ 2001 points up to Gmax=  52.9 (1/bohr)]
  Atomic number:  3;  ionic charge:  3.000000
    Shell 1: l = 0; rc = 1.19 bohr
    Shell 2: l = 0; rc = 1.25 bohr
File: /work/e89/e89/arihant/pseudo/C.usp [ 2001 points up to Gmax=  52.9 (1/bohr)]
  Atomic number:  6;  ionic charge:  4.000000
    Shell 1: l = 0; rc = 1.19 bohr
  Core charge supplied for Nonlinear Core Corrections
<<<<<<<<<<<<<<<<<<<<<<<<<<<<<<<<<<<<<<<<>>>>>>>>>>>>>>>>>>>>>>>>>>>>>>>>>>>>>>>>

-------------------------- Atom counting information ---------------------------
Symbol    Natoms    Nngwfs    Nprojs
  Li       160       800       320
  C        512      2048       512
.......   ......    ......    ......
Totals:    672      2848       832
--------------------------------------------------------------------------------

=============================== PSINC grid sizes ===============================
                      Simulation cell:  143 x  91 x 416
                              FFT-box:  117 x  91 x 117
                                  PPD:   11 x   7 x   1
Grid space d1=  0.451541543008a0 (KE cutoff=  37.25706Eh =1013.81618eV)
Grid space d2=  0.409667706512a0 (KE cutoff=  45.26271Eh =1231.66098eV)
Grid space d3=  0.454388192297a0 (KE cutoff=  36.79171Eh =1001.15326eV)
================================================================================
  
WARNING in cell_grid_distribute:
Average of less than one 23-slab per proc, so workload cannot be
equally balanced between procs.

********************* Fourier parallelisation information **********************
       Coarse grid (whole simulation cell) dimensions:    143    91   416
          Real-space ('12') slabs/proc (min max mean):      3     4     3
         Recip-space ('23') slabs/proc (min max mean):      0     1     0
********************************************************************************

********************* Fourier parallelisation information **********************
       Double grid (whole simulation cell) dimensions:    286   182   832
          Real-space ('12') slabs/proc (min max mean):      6     7     6
         Recip-space ('23') slabs/proc (min max mean):      1     2     1
********************************************************************************

********************* Fourier parallelisation information **********************
         Fine grid (whole simulation cell) dimensions:    288   184   832
          Real-space ('12') slabs/proc (min max mean):      6     7     6
         Recip-space ('23') slabs/proc (min max mean):      1     2     1
         Grid scale modified to satisfy multigrid solver grid constraints
         Grid scale values after modifification:         2.01  2.02  2.00
********************************************************************************
ONETEP fine grid is 288 x 184 x 832 gridpoints, 64.5704 x 37.2798 x 189.0255 bohr.
FD multigrid is     288 x 184 x 832 gridpoints, 64.5704 x 37.2798 x 189.0255 bohr.


Atom SCF Calculation for Li : Z (AE atom) =   3 : Z (PS atom) =   3
Config String:
Orbitals (num,occ):  3     2.00 1.00 0.00
Orbitals   (num,l):  3        0    0    1
Real-space Grid (nr,dr,rmax): 1343    0.0059612519    8.0000000000
Spherical Bessel Basis (nsws,lmax,cutoff):   37    1  220.4959463253
Confining potential (l,width,scale):  0    3.0000000000  100.0000000000
Confining potential (l,width,scale):  1    3.0000000000  100.0000000000
  1         -3.7050169094   -5.2301177776    2.5388568852   -0.9989538802
  2         -6.0510920273   -4.2679357854    3.2724001845   -1.3422946715
  3         -6.7975021434   -3.8722499620    3.6648237887   -1.5325279919
  4         -7.0147472228   -3.7673066376    3.7864613280   -1.5966989055
  5         -7.0774132854   -3.7446783348    3.8157063634   -1.6161454686
  6         -7.0951992563   -3.7420177453    3.8204515040   -1.6217593843
  7         -7.1001226024   -3.7430426481    3.8200527077   -1.6233132433
  8         -7.1014239576   -3.7441529610    3.8191274553   -1.6237164860
  9         -7.1017352306   -3.7448434699    3.8184905098   -1.6238077213
 10         -7.1017916056   -3.7452114113    3.8181373932   -1.6238209669
 11         -7.1017908912   -3.7453946820    3.8179578223   -1.6238181917
 12         -7.1017822190   -3.7454828903    3.8178702968   -1.6238141227
 13         -7.1017768840   -3.7455162316    3.8178369316   -1.6238119017
 14         -7.1017732849   -3.7455353767    3.8178176959   -1.6238104459
 15         -7.1017709700   -3.7455463461    3.8178066371   -1.6238095253
 16         -7.1017695244   -3.7455526225    3.8178002910   -1.6238089565
 17         -7.1017686390   -3.7455562110    3.8177966534   -1.6238086105
 18         -7.1017681040   -3.7455582619    3.8177945697   -1.6238084022
 19         -7.1017677838   -3.7455594341    3.8177933764   -1.6238082778
 20         -7.1017675934   -3.7455601042    3.8177926929   -1.6238082039
 21         -7.1017674808   -3.7455604874    3.8177923014   -1.6238081602
 22         -7.1017674145   -3.7455607066    3.8177920771   -1.6238081344
Atom SCF converged after  22 iterations to a total energy of     -7.10176741

Atom SCF Calculation for C  : Z (AE atom) =   6 : Z (PS atom) =   4
Config String:
Orbitals (num,occ):  2     2.00 2.00
Orbitals   (num,l):  2        0    1
Real-space Grid (nr,dr,rmax): 1343    0.0059612519    8.0000000000
Spherical Bessel Basis (nsws,lmax,cutoff):   37    1  220.4959463253
Confining potential (l,width,scale):  0    3.0000000000  100.0000000000
Confining potential (l,width,scale):  1    3.0000000000  100.0000000000
  1         -5.8177092822   -1.2555419264    4.5135233515   -1.7471920893
  2         -5.6032261188   -1.3440047989    4.4246587726   -1.7090653419
  3         -5.5936068668   -1.3561735374    4.4140765627   -1.7034094417
  4         -5.5958505747   -1.3587284552    4.4121342699   -1.7022848669
  5         -5.5969687665   -1.3601698222    4.4109982405   -1.7017057890
  6         -5.5975400979   -1.3609792837    4.4103423276   -1.7013975981
  7         -5.5978435204   -1.3614297943    4.4099696476   -1.7012314972
  8         -5.5980096069   -1.3616786122    4.4097605138   -1.7011416075
  9         -5.5981021113   -1.3618152853    4.4096441572   -1.7010929151
 10         -5.5981539939   -1.3618900852    4.4095797860   -1.7010665406
 11         -5.5981831160   -1.3619309228    4.4095443105   -1.7010522599
 12         -5.5981994243   -1.3619531807    4.4095248124   -1.7010445305
 13         -5.5982085235   -1.3619652972    4.4095141175   -1.7010403487
 14         -5.5982135796   -1.3619718867    4.4095082606   -1.7010380870
 15         -5.5982163780   -1.3619754676    4.4095050573   -1.7010368642
 16         -5.5982179208   -1.3619774123    4.4095033073   -1.7010362032
 17         -5.5982187685   -1.3619784678    4.4095023522   -1.7010358460
 18         -5.5982192328   -1.3619790404    4.4095018314   -1.7010356530
 19         -5.5982194864   -1.3619793509    4.4095015476   -1.7010355488
 20         -5.5982196245   -1.3619795192    4.4095013931   -1.7010354925
 21         -5.5982196995   -1.3619796104    4.4095013090   -1.7010354621
Atom SCF converged after  21 iterations to a total energy of     -5.59821970

BC: Task: GEOMETRYOPTIMIZATION
BC: +++++++++++++++ Summary of boundary conditions ++++++++++++++
BC: |       Component       |     Keyword     |   Periodicity   |
BC: |                       |                 |     X  Y  Z [1] |
BC: |-----------------------------------------------------------|
BC: | Ion-ion               | ion_ion_bc [2]  |     P  P  P     |
BC: | Local pseudopotential | pspot_bc [3]    |     P  P  P     |
BC: | Multigrid solver      | multigrid_bc    |     P  P  P     |
BC: | Smeared ions          | smeared_ion_bc  |     P  P  P     |
BC: | Van der Waals         | vdw_bc          |     P  P  P     |
BC: +++++++++++++++++++++++++++++++++++++++++++++++++++++++++++++
BC: P: Periodic, O: Open.
BC: [1] Not strictly along X, Y, Z but rather along lattice vectors A1, A2, A3.
BC: [2] Also affected by: pbc_correction_cutoff, cutoff_coulomb_type,
BC:     is_smeared_ion_rep, is_implicit_solvent, openbc_ion_ion.
BC: [3] Also affected by: is_smeared_ion_rep, is_implicit_solvent, openbc_pspot.

================================================================================
<<<<<<<<<<<<<<<< Resuming previous ONETEP Geometry Optimisation >>>>>>>>>>>>>>>>
================================================================================

 Geometry Optimisation: output file is "graphite.geom"
 
 Reading continuation file "graphite.continuation" ...done
 Geometry Optimisation: read_tightbox_ngwfs parameter over-ridden to TRUE
 Geometry Optimisation: read_hamiltonian parameter over-ridden to T
 
                           -------------------------------
                                     Cell Contents
                           -------------------------------
 
            xxxxxxxxxxxxxxxxxxxxxxxxxxxxxxxxxxxxxxxxxxxxxxxxxxxxxxxxxxxx
            x  Element    Atom      Absolute co-ordinates of atoms     x
            x            Number        x           y           z       x
            x----------------------------------------------------------x
            x    Li        1        0.043113   37.153863   16.306065   x
            x    Li        2        0.042580   27.835232   16.308000   x
            x    Li        3        0.043345   18.514249   16.306190   x
            x    Li        4        0.043318    9.193867   16.303987   x
            x    Li        5        0.045025   32.494603   16.311058   x
            x    Li        6        0.044653   23.172437   16.310822   x
            x    Li        7        0.045122   13.855185   16.312298   x
            x    Li        8        0.044421    4.534157   16.311109   x
            x    Li        9        8.139905   37.154021   16.315029   x
            x    Li       10        8.140605   27.835134   16.314678   x
            x    Li       11        8.141517   18.511308   16.314444   x
            x    Li       12        8.143796    9.194804   16.307378   x
            x    Li       13        8.139418   32.495236   16.305678   x
            x    Li       14        8.139658   23.172183   16.308225   x
            x    Li       15        8.142356   13.853525   16.304693   x
            x    Li       16        8.141284    4.536955   16.309520   x
            x    Li       17       16.235686    9.197782   16.283178   x
            x    Li       18       16.235028   18.510528   16.301680   x
            x    Li       19       16.235948   27.834650   16.308976   x
            x    Li       20       16.235960   37.156538   16.309031   x
            x    Li       21       16.236042   32.492905   16.312241   x
            x    Li       22       16.235687   23.172079   16.310704   x
            x    Li       23       16.234715   13.848673   16.282523   x
            x    Li       24       16.234085    4.541713   16.300145   x
            x    Li       25       24.328634   32.494197   16.303697   x
            x    Li       26       24.328762   23.172807   16.305285   x
            x    Li       27       24.325608   13.853537   16.301959   x
            x    Li       28       24.328195    4.536099   16.305503   x
            x    Li       29       24.327993   37.154685   16.311340   x
            x    Li       30       24.328368   27.835175   16.309437   x
            x    Li       31       24.327075   18.512335   16.310147   x
            x    Li       32       24.322838    9.195338   16.304001   x
            x    Li       33       32.410486   37.153851   16.303683   x
            x    Li       34       32.411700   27.835262   16.303173   x
            x    Li       35       32.410307   18.514274   16.303125   x
            x    Li       36       32.409950    9.193462   16.304626   x
            x    Li       37       32.408602   32.493238   16.307713   x
            x    Li       38       32.407865   23.173610   16.307559   x
            x    Li       39       32.408568   13.856437   16.311770   x
            x    Li       40       32.408879    4.533882   16.310672   x
            x    Li       41       40.462764   32.492071   16.298101   x
            x    Li       42       40.462053   23.176307   16.302448   x
            x    Li       43       40.459797   13.854901   16.299844   x
            x    Li       44       40.459782    4.534137   16.302239   x
            x    Li       45       40.458264   37.152457   16.308394   x
            x    Li       46       40.462671   27.837052   16.300503   x
            x    Li       47       40.456406   18.514053   16.309284   x
            x    Li       48       40.457543    9.194770   16.308011   x
            x    Li       49       48.481022   37.150234   16.295537   x
            x    Li       50       48.480609   27.838321   16.277744   x
            x    Li       51       48.481596   18.517363   16.302591   x
            x    Li       52       48.480962    9.193651   16.300330   x
            x    Li       53       48.481840   32.488517   16.273854   x
            x    Li       54       48.481406   23.180302   16.292419   x
            x    Li       55       48.481901   13.854227   16.309017   x
            x    Li       56       48.482532    4.534381   16.306247   x
            x    Li       57       56.525782   32.491641   16.299555   x
            x    Li       58       56.527878   23.176275   16.303216   x
            x    Li       59       56.528961   13.855235   16.300782   x
            x    Li       60       56.528360    4.533759   16.302629   x
            x    Li       61       56.529473   37.153185   16.308001   x
            x    Li       62       56.525031   27.837037   16.301598   x
            x    Li       63       56.530852   18.513431   16.309387   x
            x    Li       64       56.530337    9.193329   16.306894   x
            x    Li       65        4.091366   34.824278   16.312361   x
            x    Li       66        4.091397   25.504175   16.312060   x
            x    Li       67        4.091795   16.184785   16.311507   x
            x    Li       68        4.093284    6.865820   16.312269   x
            x    Li       69        4.092242   30.164729   16.310912   x
            x    Li       70        4.092479   20.843486   16.313323   x
            x    Li       71        4.093837   11.523413   16.312368   x
            x    Li       72        4.091817    2.203145   16.310974   x
            x    Li       73       12.187617   34.823862   16.315938   x
            x    Li       74       12.188053   25.503692   16.312984   x
            x    Li       75       12.190738   16.178700   16.299466   x
            x    Li       76       12.190823    6.871289   16.297359   x
            x    Li       77       12.187524   30.164192   16.310500   x
            x    Li       78       12.188381   20.840878   16.312203   x
            x    Li       79       12.191750   11.524405   16.288569   x
            x    Li       80       12.188575    2.208388   16.312313   x
            x    Li       81       20.279090    6.868809   16.307597   x
            x    Li       82       20.279955   16.180031   16.300476   x
            x    Li       83       20.282600   25.502778   16.311389   x
            x    Li       84       20.282779   34.824439   16.312225   x
            x    Li       85       20.282477   30.164850   16.308303   x
            x    Li       86       20.281524   20.842059   16.309038   x
            x    Li       87       20.276584   11.523586   16.284446   x
            x    Li       88       20.281481    2.206840   16.308500   x
            x    Li       89       28.372621   30.164708   16.307526   x
            x    Li       90       28.372514   20.843895   16.311081   x
            x    Li       91       28.372326   11.522666   16.313773   x
            x    Li       92       28.372241    2.201974   16.311143   x
            x    Li       93       28.373187   34.823699   16.309260   x
            x    Li       94       28.373319   25.504150   16.306942   x
            x    Li       95       28.372570   16.186047   16.310589   x
            x    Li       96       28.371864    6.865357   16.311969   x
            x    Li       97       36.442751   34.822201   16.308884   x
            x    Li       98       36.441810   25.503341   16.309700   x
            x    Li       99       36.440354   16.184042   16.308510   x
            x    Li      100       36.440378    6.864731   16.307637   x
            x    Li      101       36.443033   30.165816   16.307134   x
            x    Li      102       36.441468   20.844874   16.307117   x
            x    Li      103       36.441377   11.524713   16.309702   x
            x    Li      104       36.441132    2.203807   16.309859   x
            x    Li      105       44.478547   30.164916   16.283034   x
            x    Li      106       44.474181   20.847957   16.308902   x
            x    Li      107       44.473046   11.524466   16.305734   x
            x    Li      108       44.473813    2.200762   16.305202   x
            x    Li      109       44.476090   34.818938   16.295713   x
            x    Li      110       44.476871   25.509720   16.290555   x
            x    Li      111       44.471946   16.184059   16.309041   x
            x    Li      112       44.472826    6.864926   16.309043   x
            x    Li      113       52.498750   34.820190   16.297316   x
            x    Li      114       52.498200   25.507483   16.303609   x
            x    Li      115       52.502318   16.185120   16.306896   x
            x    Li      116       52.502156    6.864564   16.306751   x
            x    Li      117       52.495821   30.165694   16.277997   x
            x    Li      118       52.501775   20.846829   16.304447   x
            x    Li      119       52.502612   11.523376   16.307346   x
            x    Li      120       52.502061    2.201851   16.304752   x
            x    Li      121       60.571430   30.165706   16.313358   x
            x    Li      122       60.572057   20.844298   16.311374   x
            x    Li      123       60.571980   11.523777   16.307470   x
            x    Li      124       60.572037    2.203799   16.309433   x
            x    Li      125       60.571015   34.824127   16.311813   x
            x    Li      126       60.570609   25.503033   16.311006   x
            x    Li      127       60.572324   16.183898   16.307862   x
            x    Li      128       60.571858    6.864889   16.307785   x
            x    C       129       18.930147    9.205751   12.796665   x
            x    C       130       13.521473    9.204928   12.799379   x
            x    C       131       14.878059   11.543474   12.798702   x
            x    C       132       17.572730   11.544430   12.799641   x
            x    C       133       51.203040   27.846046   12.789091   x
            x    C       134       45.805890   27.845206   12.794903   x
            x    C       135       47.158419   30.183634   12.792318   x
            x    C       136       49.849815   30.183992   12.793010   x
            x    C       137       14.877164    6.866235   12.796826   x
            x    C       138       17.572789    6.866041   12.796652   x
            x    C       139       21.604815   13.866269   12.805776   x
            x    C       140       18.922492   13.867658   12.817749   x
            x    C       141       13.529214   13.867362   12.817528   x
            x    C       142       14.879236   16.190415   12.805037   x
            x    C       143       17.572769   16.190346   12.806719   x
            x    C       144       47.157280   25.506377   12.790088   x
            x    C       145       49.849890   25.506639   12.789411   x
            x    C       146       53.874528   32.505978   12.807084   x
            x    C       147       51.194625   32.507375   12.812168   x
            x    C       148       45.814138   32.507454   12.811231   x
            x    C       149       47.159320   34.830116   12.798474   x
            x    C       150       49.849199   34.830114   12.799834   x
            x    C       151       14.879080    2.216305   12.815576   x
            x    C       152       17.572032    2.215511   12.816331   x
            x    C       153       22.958745    2.206763   12.811694   x
            x    C       154        9.492279    2.207561   12.816597   x
            x    C       155       63.295578    2.222067   12.815525   x
            x    C       156        6.801130    2.209366   12.816319   x
            x    C       157       31.029323    2.222226   12.814202   x
            x    C       158        1.417856    2.222599   12.816399   x
            x    C       159       25.648465    2.209618   12.815066   x
            x    C       160       33.721224    2.221495   12.814668   x
            x    C       161       39.098299    2.208123   12.810657   x
            x    C       162       55.224486    2.207960   12.809136   x
            x    C       163       57.913596    2.208443   12.810331   x
            x    C       164       47.159515    2.218823   12.804690   x
            x    C       165       41.786724    2.207272   12.810486   x
            x    C       166       49.848772    2.218901   12.805717   x
            x    C       167       18.921879    4.539396   12.818946   x
            x    C       168       13.528993    4.540176   12.821505   x
            x    C       169       10.845466    4.542288   12.813670   x
            x    C       170       27.002813    4.545132   12.817855   x
            x    C       171        5.446366    4.544859   12.818369   x
            x    C       172       21.605767    4.541691   12.808297   x
            x    C       173       59.266942    4.545072   12.809504   x
            x    C       174        2.765556    4.546024   12.828773   x
            x    C       175       35.067213    4.545495   12.827548   x
            x    C       176       61.947674    4.545952   12.824830   x
            x    C       177       29.682834    4.545876   12.826114   x
            x    C       178       43.136467    4.542280   12.813253   x
            x    C       179       51.192878    4.542140   12.821757   x
            x    C       180       37.746885    4.544788   12.812769   x
            x    C       181       53.872637    4.543060   12.815049   x
            x    C       182       45.815938    4.541771   12.820978   x
            x    C       183       22.962143    6.878650   12.808199   x
            x    C       184       63.296222    6.869274   12.811880   x
            x    C       185        6.798486    6.880079   12.816635   x
            x    C       186       31.029648    6.869308   12.812186   x
            x    C       187       39.096635    6.880582   12.812591   x
            x    C       188       57.915221    6.880920   12.812206   x
            x    C       189        1.417747    6.869292   12.812532   x
            x    C       190        9.489583    6.878554   12.814862   x
            x    C       191       25.652105    6.880265   12.814905   x
            x    C       192       33.720872    6.868976   12.813507   x
            x    C       193       55.226256    6.879028   12.811410   x
            x    C       194       47.159281    6.866044   12.808392   x
            x    C       195       41.785100    6.878660   12.812849   x
            x    C       196       49.849309    6.866270   12.809178   x
            x    C       197       51.200839    9.203789   12.807693   x
            x    C       198       59.260652    9.204228   12.821963   x
            x    C       199        2.772029    9.203871   12.813019   x
            x    C       200       26.996065    9.204207   12.825094   x
            x    C       201       35.074152    9.203897   12.815106   x
            x    C       202       43.127814    9.203144   12.823362   x
            x    C       203       53.881532    9.203091   12.821655   x
            x    C       204       61.940899    9.204216   12.814796   x
            x    C       205        5.452837    9.204110   12.824273   x
            x    C       206       21.615065    9.204594   12.813562   x
            x    C       207       29.675887    9.204080   12.813332   x
            x    C       208       37.753214    9.203820   12.820367   x
            x    C       209       45.808170    9.203704   12.812095   x
            x    C       210       10.837049    9.203688   12.820406   x
            x    C       211       47.158739   11.542051   12.811378   x
            x    C       212       55.225780   11.528644   12.807203   x
            x    C       213       63.296380   11.539245   12.813406   x
            x    C       214       31.029472   11.538867   12.813969   x
            x    C       215       39.096473   11.527505   12.807908   x
            x    C       216       49.849286   11.542191   12.812038   x
            x    C       217       57.915367   11.527835   12.807739   x
            x    C       218        1.417808   11.538983   12.814052   x
            x    C       219       33.720552   11.539093   12.814641   x
            x    C       220       41.785405   11.528417   12.808586   x
            x    C       221        6.799449   11.528469   12.810904   x
            x    C       222       22.960581   11.530554   12.803669   x
            x    C       223       25.650359   11.528422   12.810077   x
            x    C       224        9.490802   11.529412   12.808789   x
            x    C       225       45.815895   13.866206   12.822555   x
            x    C       226       43.136230   13.865515   12.812156   x
            x    C       227       51.192546   13.866814   12.822969   x
            x    C       228       59.267664   13.863817   12.807385   x
            x    C       229       35.065984   13.863287   12.824541   x
            x    C       230       53.872662   13.866243   12.813962   x
            x    C       231       61.948868   13.862952   12.822684   x
            x    C       232       29.682998   13.862872   12.824376   x
            x    C       233       37.746131   13.863770   12.809754   x
            x    C       234        2.765511   13.862883   12.826496   x
            x    C       235       27.002325   13.863668   12.813097   x
            x    C       236        5.446893   13.863946   12.813760   x
            x    C       237       10.846374   13.866004   12.808864   x
            x    C       238       47.159679   16.189414   12.809176   x
            x    C       239       55.223945   16.202498   12.812072   x
            x    C       240       41.787028   16.201754   12.813173   x
            x    C       241       49.848982   16.189887   12.810696   x
            x    C       242       39.098279   16.200966   12.811787   x
            x    C       243       63.295983   16.188007   12.812450   x
            x    C       244       31.029192   16.187719   12.810683   x
            x    C       245       57.913315   16.201195   12.812083   x
            x    C       246       33.720969   16.188575   12.811117   x
            x    C       247        6.802167   16.199406   12.814422   x
            x    C       248        1.418403   16.187438   12.812926   x
            x    C       249       25.647626   16.199559   12.812900   x
            x    C       250       22.957466   16.201619   12.809334   x
            x    C       251        9.493065   16.201672   12.813912   x
            x    C       252       51.200747   18.522603   12.811081   x
            x    C       253       45.808115   18.522809   12.813801   x
            x    C       254       43.129511   18.525012   12.824776   x
            x    C       255       53.879354   18.525069   12.824141   x
            x    C       256       35.074937   18.525740   12.815764   x
            x    C       257       59.258678   18.525769   12.825834   x
            x    C       258       37.754784   18.525328   12.823374   x
            x    C       259       61.939614   18.525351   12.817782   x
            x    C       260       29.675706   18.524613   12.812738   x
            x    C       261        2.773137   18.524026   12.814621   x
            x    C       262       26.994194   18.523680   12.826762   x
            x    C       263        5.455317   18.523040   12.827272   x
            x    C       264       10.841249   18.524337   12.825701   x
            x    C       265       18.928315   18.524621   12.810604   x
            x    C       266       21.610188   18.524513   12.821563   x
            x    C       267       13.523507   18.524858   12.810549   x
            x    C       268       47.159365   20.855947   12.809553   x
            x    C       269       49.848641   20.855049   12.809621   x
            x    C       270       55.226303   20.846436   12.809516   x
            x    C       271       41.784805   20.847385   12.810467   x
            x    C       272       31.030796   20.861433   12.813383   x
            x    C       273       39.097234   20.849286   12.810077   x
            x    C       274       63.294537   20.862534   12.816608   x
            x    C       275       33.722045   20.862311   12.815023   x
            x    C       276       57.914156   20.849555   12.811198   x
            x    C       277        1.416951   20.861041   12.816648   x
            x    C       278        6.802485   20.847604   12.816849   x
            x    C       279       22.957096   20.847716   12.811889   x
            x    C       280       25.647617   20.848312   12.814591   x
            x    C       281       14.879554   20.858784   12.811432   x
            x    C       282        9.493921   20.847229   12.816930   x
            x    C       283       17.572028   20.858572   12.813080   x
            x    C       284       51.193989   23.179187   12.812215   x
            x    C       285       45.814233   23.179765   12.815418   x
            x    C       286       43.133655   23.182271   12.809245   x
            x    C       287       59.267098   23.185047   12.810247   x
            x    C       288       37.746265   23.184954   12.810862   x
            x    C       289       53.875584   23.181568   12.808888   x
            x    C       290       27.002362   23.185198   12.816431   x
            x    C       291       35.067465   23.185723   12.826196   x
            x    C       292        2.764886   23.185407   12.829652   x
            x    C       293       29.683929   23.185679   12.824266   x
            x    C       294       61.946896   23.186033   12.826380   x
            x    C       295       10.848080   23.182379   12.817875   x
            x    C       296       18.920627   23.181743   12.827558   x
            x    C       297        5.447348   23.184718   12.819316   x
            x    C       298       21.603191   23.182758   12.814039   x
            x    C       299       13.531190   23.181815   12.827200   x
            x    C       300       55.229280   25.519321   12.806156   x
            x    C       301       31.030782   25.509895   12.809511   x
            x    C       302       39.094349   25.520884   12.811050   x
            x    C       303       63.294724   25.509655   12.814318   x
            x    C       304        6.800683   25.521406   12.819554   x
            x    C       305       25.649402   25.521509   12.816508   x
            x    C       306       33.721904   25.509590   12.811541   x
            x    C       307       41.782288   25.519039   12.808664   x
            x    C       308       57.917829   25.520782   12.811869   x
            x    C       309        1.416674   25.509725   12.814404   x
            x    C       310       22.958568   25.519361   12.814483   x
            x    C       311       14.878974   25.506498   12.814941   x
            x    C       312        9.492447   25.519158   12.819851   x
            x    C       313       17.572664   25.506523   12.816231   x
            x    C       314       18.928346   27.844243   12.817137   x
            x    C       315       26.996417   27.844211   12.824793   x
            x    C       316       35.074524   27.844570   12.814954   x
            x    C       317       59.260486   27.844875   12.823708   x
            x    C       318        2.772154   27.844330   12.814533   x
            x    C       319       10.840123   27.843200   12.829972   x
            x    C       320       21.611492   27.843631   12.825922   x
            x    C       321       29.676573   27.844554   12.810167   x
            x    C       322       37.752940   27.844740   12.819793   x
            x    C       323       53.884658   27.844858   12.811235   x
            x    C       324       61.939911   27.844223   12.819252   x
            x    C       325        5.452937   27.844241   12.826803   x
            x    C       326       13.523522   27.843970   12.816845   x
            x    C       327       43.125053   27.843845   12.815064   x
            x    C       328       14.878840   30.181867   12.817641   x
            x    C       329       22.958195   30.168806   12.810208   x
            x    C       330       31.031412   30.179138   12.811130   x
            x    C       331       63.294674   30.179000   12.816216   x
            x    C       332        6.800434   30.167223   12.814810   x
            x    C       333       17.572669   30.182417   12.819328   x
            x    C       334       25.649477   30.167191   12.812034   x
            x    C       335       33.722011   30.179224   12.813043   x
            x    C       336        1.416484   30.178993   12.816198   x
            x    C       337        9.492616   30.168039   12.815229   x
            x    C       338       39.095610   30.168398   12.805348   x
            x    C       339       55.227895   30.170115   12.801539   x
            x    C       340       57.915955   30.168898   12.806954   x
            x    C       341       41.783606   30.169250   12.802590   x
            x    C       342       13.531412   32.506316   12.828956   x
            x    C       343       10.848143   32.505424   12.816942   x
            x    C       344       18.920128   32.507004   12.829637   x
            x    C       345       27.003185   32.503585   12.813889   x
            x    C       346        2.764030   32.503203   12.827677   x
            x    C       347       21.602841   32.506213   12.813774   x
            x    C       348       29.684912   32.502936   12.822219   x
            x    C       349       61.946914   32.503052   12.824697   x
            x    C       350        5.446541   32.503619   12.816648   x
            x    C       351       35.067443   32.502599   12.824747   x
            x    C       352       59.266717   32.503899   12.806719   x
            x    C       353       37.746485   32.503515   12.807515   x
            x    C       354       43.134632   32.505950   12.804372   x
            x    C       355       14.879913   34.829357   12.815814   x
            x    C       356       22.956561   34.841909   12.815301   x
            x    C       357        9.494138   34.841534   12.819382   x
            x    C       358       17.572119   34.829706   12.818135   x
            x    C       359        6.802394   34.840746   12.818018   x
            x    C       360       31.030913   34.827922   12.810048   x
            x    C       361       63.294455   34.827516   12.813120   x
            x    C       362       25.647470   34.841192   12.815941   x
            x    C       363        1.416650   34.828252   12.812978   x
            x    C       364       39.098374   34.838839   12.808601   x
            x    C       365       33.722420   34.826790   12.811436   x
            x    C       366       57.913505   34.839195   12.809450   x
            x    C       367       55.225257   34.841448   12.806479   x
            x    C       368       41.785987   34.841465   12.807616   x
            x    C       369       18.928107   37.162307   12.818960   x
            x    C       370       13.523798   37.162324   12.818142   x
            x    C       371       10.841716   37.164511   12.830075   x
            x    C       372       21.609533   37.164530   12.827044   x
            x    C       373        2.772608   37.165128   12.814161   x
            x    C       374       26.994327   37.165544   12.827873   x
            x    C       375        5.454763   37.164975   12.828278   x
            x    C       376       29.675537   37.164813   12.812783   x
            x    C       377       61.939962   37.164407   12.817110   x
            x    C       378       35.075339   37.163571   12.815499   x
            x    C       379       59.258617   37.163170   12.824196   x
            x    C       380       37.755691   37.162839   12.821805   x
            x    C       381       43.129230   37.163974   12.819510   x
            x    C       382       51.200814   37.164373   12.801472   x
            x    C       383       53.880217   37.164188   12.817445   x
            x    C       384       45.808169   37.164303   12.805784   x
            x    Li      385        0.052418   37.129673    9.371026   x
            x    Li      386        0.052549   27.807865    9.371594   x
            x    Li      387        0.051953   18.485573    9.371022   x
            x    Li      388        0.052040    9.166688    9.369158   x
            x    Li      389        8.138802   32.465770    9.372523   x
            x    Li      390        8.139164   23.148891    9.374278   x
            x    Li      391        8.141512   13.828541    9.366136   x
            x    Li      392        8.140068    4.507331    9.370564   x
            x    Li      393       16.226649    9.169555    9.354291   x
            x    Li      394       16.227822   18.482208    9.363238   x
            x    Li      395       16.227905   27.808234    9.372523   x
            x    Li      396       16.228206   37.131210    9.372070   x
            x    Li      397       24.313600   32.465740    9.368945   x
            x    Li      398       24.313340   23.148652    9.370295   x
            x    Li      399       24.310276   13.828664    9.363371   x
            x    Li      400       24.312823    4.506241    9.367120   x
            x    Li      401       32.386313   37.129114    9.369641   x
            x    Li      402       32.386085   27.807739    9.368044   x
            x    Li      403       32.386875   18.485935    9.369751   x
            x    Li      404       32.387323    9.166582    9.370113   x
            x    Li      405       40.444667   32.464692    9.362391   x
            x    Li      406       40.442684   23.150447    9.366711   x
            x    Li      407       40.441402   13.829539    9.368111   x
            x    Li      408       40.441407    4.505522    9.369907   x
            x    Li      409       48.487775   37.126256    9.358552   x
            x    Li      410       48.486944   27.810715    9.350186   x
            x    Li      411       48.488529   18.487237    9.367583   x
            x    Li      412       48.487647    9.166889    9.367671   x
            x    Li      413       56.542068   32.465186    9.361595   x
            x    Li      414       56.545137   23.149235    9.364963   x
            x    Li      415       56.546078   13.829516    9.366349   x
            x    Li      416       56.545726    4.505845    9.367720   x
            x    C       417       18.921614    9.194528    5.927961   x
            x    C       418       13.519376    9.194493    5.937885   x
            x    C       419       14.866492   11.535289    5.931189   x
            x    C       420       17.574371   11.535564    5.938472   x
            x    C       421       51.205589   27.834312    5.929527   x
            x    C       422       45.804121   27.834477    5.934370   x
            x    C       423       47.151254   30.175244    5.929540   x
            x    C       424       49.858718   30.175005    5.939743   x
            x    C       425       14.866546    6.853697    5.925862   x
            x    C       426       17.574405    6.853418    5.932991   x
            x    C       427       21.599290   13.857415    5.943928   x
            x    C       428       18.911871   13.859613    5.959322   x
            x    C       429       13.529149   13.859493    5.967626   x
            x    C       430       14.868126   16.181080    5.930869   x
            x    C       431       17.573109   16.181027    5.938592   x
            x    C       432       47.151273   25.493691    5.924305   x
            x    C       433       49.858701   25.493762    5.934290   x
            x    C       434       53.882377   32.497085    5.938652   x
            x    C       435       51.195500   32.499207    5.958697   x
            x    C       436       45.814298   32.499425    5.965883   x
            x    C       437       47.152839   34.820997    5.930093   x
            x    C       438       49.857536   34.820995    5.940663   x
            x    C       439       14.868191    2.206853    5.937789   x
            x    C       440       17.572733    2.207056    5.945438   x
            x    C       441       22.941630    2.195629    5.937325   x
            x    C       442        9.499162    2.195477    5.946864   x
            x    C       443       63.295066    2.213229    5.940777   x
            x    C       444        6.797457    2.197983    5.938468   x
            x    C       445       31.011010    2.213603    5.942937   x
            x    C       446        1.430093    2.213795    5.952230   x
            x    C       447       25.643490    2.197980    5.944630   x
            x    C       448       33.716470    2.212859    5.949352   x
            x    C       449       39.085102    2.196802    5.939762   x
            x    C       450       55.222997    2.195640    5.933529   x
            x    C       451       57.925637    2.196805    5.947087   x
            x    C       452       47.153378    2.210071    5.934219   x
            x    C       453       41.787440    2.195257    5.946055   x
            x    C       454       49.856585    2.210396    5.944458   x
            x    C       455       18.911495    4.529142    5.957947   x
            x    C       456       13.529367    4.529221    5.965890   x
            x    C       457       10.841426    4.531749    5.937164   x
            x    C       458       26.988368    4.535372    5.936990   x
            x    C       459        5.452546    4.535214    5.948769   x
            x    C       460       21.599252    4.531761    5.946028   x
            x    C       461       59.270892    4.535297    5.942942   x
            x    C       462        2.766874    4.536367    5.966627   x
            x    C       463       35.052927    4.536009    5.965022   x
            x    C       464       61.958263    4.536491    5.972805   x
            x    C       465       29.674200    4.536464    5.973195   x
            x    C       466       43.130481    4.532429    5.939575   x
            x    C       467       51.192948    4.531846    5.961109   x
            x    C       468       37.739767    4.535045    5.951385   x
            x    C       469       53.879459    4.532820    5.943823   x
            x    C       470       45.817157    4.531517    5.969745   x
            x    C       471       22.945285    6.869679    5.937138   x
            x    C       472       63.295367    6.858859    5.936493   x
            x    C       473        6.794536    6.871711    5.940271   x
            x    C       474       31.011154    6.858599    5.940185   x
            x    C       475       39.082736    6.872140    5.943266   x
            x    C       476       57.927837    6.872738    5.950885   x
            x    C       477        1.429815    6.858439    5.948208   x
            x    C       478        9.495847    6.869823    5.946624   x
            x    C       479       25.646519    6.871936    5.946485   x
            x    C       480       33.715977    6.858369    5.946449   x
            x    C       481       55.225215    6.871031    5.939187   x
            x    C       482       47.152887    6.854665    5.936468   x
            x    C       483       41.785017    6.870560    5.951746   x
            x    C       484       49.857296    6.854758    5.946425   x
            x    C       485       51.201759    9.194538    5.941430   x
            x    C       486       59.263360    9.194828    5.963067   x
            x    C       487        2.774995    9.194586    5.942494   x
            x    C       488       26.980467    9.194519    5.961959   x
            x    C       489       35.061767    9.194597    5.938068   x
            x    C       490       43.120330    9.194133    5.964633   x
            x    C       491       53.889295    9.194365    5.971379   x
            x    C       492       61.949094    9.194850    5.945176   x
            x    C       493        5.460414    9.194540    5.971806   x
            x    C       494       21.610567    9.194256    5.966429   x
            x    C       495       29.665661    9.194644    5.951394   x
            x    C       496       37.747436    9.194369    5.972185   x
            x    C       497       45.807616    9.194455    5.947638   x
            x    C       498       10.830748    9.194063    5.960002   x
            x    C       499       47.152812   11.534126    5.941532   x
            x    C       500       55.225080   11.517830    5.934760   x
            x    C       501       63.295629   11.530572    5.939245   x
            x    C       502       31.011241   11.530409    5.943126   x
            x    C       503       39.082510   11.516350    5.938555   x
            x    C       504       49.856997   11.534038    5.951350   x
            x    C       505       57.928147   11.516859    5.946032   x
            x    C       506        1.429834   11.530778    5.950898   x
            x    C       507       33.715657   11.530492    5.949602   x
            x    C       508       41.785163   11.517614    5.947456   x
            x    C       509        6.794901   11.517036    5.934617   x
            x    C       510       22.944640   11.519014    5.932292   x
            x    C       511       25.646212   11.516891    5.941034   x
            x    C       512        9.496582   11.518577    5.942176   x
            x    C       513       45.817029   13.857096    5.973302   x
            x    C       514       43.130515   13.856102    5.940028   x
            x    C       515       51.192563   13.857094    5.964683   x
            x    C       516       59.271331   13.854361    5.940967   x
            x    C       517       35.052312   13.853001    5.964045   x
            x    C       518       53.879090   13.856329    5.944328   x
            x    C       519       61.958700   13.853295    5.971615   x
            x    C       520       29.674414   13.852997    5.971612   x
            x    C       521       37.739155   13.853746    5.949569   x
            x    C       522        2.766936   13.853187    5.964582   x
            x    C       523       26.988287   13.853982    5.933630   x
            x    C       524        5.452927   13.854074    5.945304   x
            x    C       525       10.841599   13.857280    5.935355   x
            x    C       526       47.153123   16.178235    5.938625   x
            x    C       527       55.222844   16.193917    5.938465   x
            x    C       528       41.787139   16.193525    5.950633   x
            x    C       529       49.856298   16.178199    5.948381   x
            x    C       530       39.084565   16.192175    5.942591   x
            x    C       531       63.295084   16.176541    5.936551   x
            x    C       532       31.010952   16.175986    5.939013   x
            x    C       533       57.925665   16.192553    5.950154   x
            x    C       534       33.716334   16.176332    5.945631   x
            x    C       535        6.798203   16.190997    5.938187   x
            x    C       536        1.430112   16.175753    5.947718   x
            x    C       537       25.643098   16.191396    5.944093   x
            x    C       538       22.941675   16.193549    5.936176   x
            x    C       539        9.499407   16.193502    5.946406   x
            x    C       540       51.201943   18.512666    5.941134   x
            x    C       541       45.807198   18.512507    5.947082   x
            x    C       542       43.121938   18.514969    5.963905   x
            x    C       543       53.887586   18.515340    5.970843   x
            x    C       544       35.062537   18.515376    5.938372   x
            x    C       545       59.261379   18.515625    5.964974   x
            x    C       546       37.749347   18.515641    5.973658   x
            x    C       547       61.948324   18.515371    5.946578   x
            x    C       548       29.665257   18.514172    5.950718   x
            x    C       549        2.775763   18.513825    5.943275   x
            x    C       550       26.977966   18.513860    5.962864   x
            x    C       551        5.463238   18.513332    5.973359   x
            x    C       552       10.836719   18.514072    5.961817   x
            x    C       553       18.918423   18.515832    5.932906   x
            x    C       554       21.604252   18.514314    5.968017   x
            x    C       555       13.522493   18.515621    5.944046   x
            x    C       556       47.152808   20.846588    5.936958   x
            x    C       557       49.856945   20.846893    5.947219   x
            x    C       558       55.225084   20.835719    5.935057   x
            x    C       559       41.784950   20.835307    5.946563   x
            x    C       560       31.011947   20.852575    5.943546   x
            x    C       561       39.083715   20.837952    5.940053   x
            x    C       562       63.294135   20.853750    5.940921   x
            x    C       563       33.717175   20.853642    5.949640   x
            x    C       564       57.926773   20.837891    5.947908   x
            x    C       565        1.429266   20.852534    5.952951   x
            x    C       566        6.798619   20.836626    5.939781   x
            x    C       567       22.939604   20.835664    5.937516   x
            x    C       568       25.642572   20.836914    5.944837   x
            x    C       569       14.868725   20.849960    5.937030   x
            x    C       570        9.501515   20.835358    5.948344   x
            x    C       571       17.572379   20.850244    5.944305   x
            x    C       572       51.195069   23.169264    5.957100   x
            x    C       573       45.814509   23.169065    5.964460   x
            x    C       574       43.126917   23.171736    5.934909   x
            x    C       575       59.271169   23.175367    5.942538   x
            x    C       576       37.739388   23.175226    5.950122   x
            x    C       577       53.882313   23.171850    5.940777   x
            x    C       578       26.988362   23.175559    5.938242   x
            x    C       579       35.053867   23.176257    5.964751   x
            x    C       580        2.765747   23.176017    5.967068   x
            x    C       581       29.675688   23.176202    5.972816   x
            x    C       582       61.957201   23.176643    5.973888   x
            x    C       583       10.844768   23.172612    5.943213   x
            x    C       584       18.909339   23.171608    5.963169   x
            x    C       585        5.452928   23.175127    5.951114   x
            x    C       586       21.596300   23.172748    5.950223   x
            x    C       587       13.531827   23.171497    5.972675   x
            x    C       588       55.228486   25.509759    5.933711   x
            x    C       589       31.012270   25.499043    5.938929   x
            x    C       590       39.080885   25.511843    5.940428   x
            x    C       591       63.294571   25.498571    5.937709   x
            x    C       592        6.796527   25.512547    5.942761   x
            x    C       593       25.644787   25.513030    5.947661   x
            x    C       594       33.717035   25.498391    5.944968   x
            x    C       595       41.781647   25.510038    5.945081   x
            x    C       596       57.929630   25.511994    5.948959   x
            x    C       597        1.428835   25.498619    5.949690   x
            x    C       598       22.941892   25.510924    5.942342   x
            x    C       599       14.867929   25.494675    5.938628   x
            x    C       600        9.499271   25.510861    5.952725   x
            x    C       601       17.572835   25.494490    5.945957   x
            x    C       602       18.918022   27.834302    5.939797   x
            x    C       603       26.980561   27.834691    5.962447   x
            x    C       604       35.062454   27.834651    5.936678   x
            x    C       605       59.263631   27.834705    5.961819   x
            x    C       606        2.774346   27.834673    5.943394   x
            x    C       607       10.835125   27.834042    5.966443   x
            x    C       608       21.605878   27.834427    5.972677   x
            x    C       609       29.666368   27.834867    5.949446   x
            x    C       610       37.747435   27.834523    5.969914   x
            x    C       611       53.894054   27.833923    5.964736   x
            x    C       612       61.948810   27.834543    5.946263   x
            x    C       613        5.460438   27.834430    5.973293   x
            x    C       614       13.522682   27.834220    5.950981   x
            x    C       615       43.116052   27.833991    5.957288   x
            x    C       616       14.868076   30.173644    5.943234   x
            x    C       617       22.941869   30.157885    5.937670   x
            x    C       618       31.012522   30.170491    5.942154   x
            x    C       619       63.294634   30.170425    5.940662   x
            x    C       620        6.796227   30.156111    5.937456   x
            x    C       621       17.572774   30.173944    5.950498   x
            x    C       622       25.645084   30.156235    5.942678   x
            x    C       623       33.717018   30.170791    5.948173   x
            x    C       624        1.428649   30.170550    5.952299   x
            x    C       625        9.499319   30.157246    5.947812   x
            x    C       626       39.081308   30.156910    5.935095   x
            x    C       627       55.227848   30.158391    5.928907   x
            x    C       628       57.929409   30.157139    5.943267   x
            x    C       629       41.782436   30.158222    5.940122   x
            x    C       630       13.531880   32.496933    5.975848   x
            x    C       631       10.844777   32.495896    5.943096   x
            x    C       632       18.908932   32.497103    5.966864   x
            x    C       633       26.988525   32.493975    5.936803   x
            x    C       634        2.765565   32.493272    5.965985   x
            x    C       635       21.595904   32.496186    5.950720   x
            x    C       636       29.675792   32.493333    5.972220   x
            x    C       637       61.957477   32.492803    5.972369   x
            x    C       638        5.452655   32.493786    5.948977   x
            x    C       639       35.053842   32.492994    5.963601   x
            x    C       640       59.271177   32.494036    5.939505   x
            x    C       641       37.739606   32.493899    5.947066   x
            x    C       642       43.127236   32.497012    5.932655   x
            x    C       643       14.868705   34.818143    5.941537   x
            x    C       644       22.939481   34.833322    5.942647   x
            x    C       645        9.501290   34.833302    5.952805   x
            x    C       646       17.572166   34.818094    5.948710   x
            x    C       647        6.798423   34.832092    5.942588   x
            x    C       648       31.011982   34.816657    5.940172   x
            x    C       649       63.294114   34.815696    5.937649   x
            x    C       650       25.642461   34.832391    5.948372   x
            x    C       651        1.429166   34.816535    5.949470   x
            x    C       652       39.084553   34.830849    5.939776   x
            x    C       653       33.717383   34.815476    5.946112   x
            x    C       654       57.926306   34.831062    5.947738   x
            x    C       655       55.225002   34.833497    5.934164   x
            x    C       656       41.785432   34.833355    5.945551   x
            x    C       657       18.918099   37.152458    5.939830   x
            x    C       658       13.522624   37.152345    5.950754   x
            x    C       659       10.836822   37.154658    5.965889   x
            x    C       660       21.603963   37.154714    5.972554   x
            x    C       661        2.775356   37.155244    5.944162   x
            x    C       662       26.978287   37.155504    5.965211   x
            x    C       663        5.462633   37.155417    5.975149   x
            x    C       664       29.665503   37.155189    5.951601   x
            x    C       665       61.948102   37.154167    5.946786   x
            x    C       666       35.063139   37.153744    5.938169   x
            x    C       667       59.260950   37.153488    5.963590   x
            x    C       668       37.750151   37.153325    5.972239   x
            x    C       669       43.122173   37.153868    5.959435   x
            x    C       670       51.202384   37.155815    5.934857   x
            x    C       671       53.887910   37.154248    5.966655   x
            x    C       672       45.807320   37.155472    5.940278   x
            xxxxxxxxxxxxxxxxxxxxxxxxxxxxxxxxxxxxxxxxxxxxxxxxxxxxxxxxxxxx
 

LBFGS: continuation file name is "graphite.continuation"
 LBFGS: Restarting previous  geometry optimization.
 avg_mass=  19693.810119074151
 Enthalpy contributions:
                  total energy=  -3.78405870E+003 Eh
        diagonal pressure term=   0.00000000E+000 Eh
    off-diagonal pressure term=   0.00000000E+000 Eh
 LBFGS: finished iteration   0  with enthalpy= -3.784058695257E+003 Eh
  
 +-----------+-----------------+-----------------+------------+-----+ <-- LBFGS
 | Parameter |      value      |    tolerance    |    units   | OK? | <-- LBFGS
 +-----------+-----------------+-----------------+------------+-----+ <-- LBFGS
 |  dE/ion   |   0.000000E+000 |   1.000000E-006 |         Eh | No  | <-- LBFGS
 |  |F|max   |   3.401747E-003 |   2.000000E-003 |    Eh/Bohr | No  | <-- LBFGS
 |  |dR|max  |   0.000000E+000 |   5.000000E-003 |       Bohr | No  | <-- LBFGS
 +-----------+-----------------+-----------------+------------+-----+ <-- LBFGS
  

================================================================================
 Starting LBFGS iteration    1 ...
================================================================================
 Writing xyz coordinates to file "graphite.xyz" ... done

 Writing continuation file "graphite.continuation" ...done
 Backing up NGWFs to file "graphite.tightbox_ngwfs.bfgs_back" ... done
 Backing up Hamiltonian to file "graphite.ham.bfgs_back" ... done
  
 +------------+-------------+-------------+-----------------+ <-- min LBFGS
 |    Step    |   lambda    |   F.delta   |    enthalpy     | <-- min LBFGS
 +------------+-------------+-------------+-----------------+ <-- min LBFGS
 |  previous  |    0.000000 |    0.006772 |    -3784.058695 | <-- min LBFGS
 +------------+-------------+-------------+-----------------+ <-- min LBFGS
  

--------------------------------------------------------------------------------
 LBFGS: starting iteration   1 with trial guess (lambda=    1.000000)
--------------------------------------------------------------------------------
 
                           -------------------------------
                                     Cell Contents
                           -------------------------------
 
            xxxxxxxxxxxxxxxxxxxxxxxxxxxxxxxxxxxxxxxxxxxxxxxxxxxxxxxxxxxx
            x  Element    Atom      Absolute co-ordinates of atoms     x
            x            Number        x           y           z       x
            x----------------------------------------------------------x
            x    Li        1        0.040423   37.149809   16.324902   x
            x    Li        2        0.040029   27.831397   16.326778   x
            x    Li        3        0.040731   18.510375   16.325025   x
            x    Li        4        0.040693    9.189875   16.322559   x
            x    Li        5        0.042803   32.491054   16.333671   x
            x    Li        6        0.042311   23.168479   16.333583   x
            x    Li        7        0.042847   13.851616   16.335502   x
            x    Li        8        0.042084    4.530551   16.334066   x
            x    Li        9        8.139319   37.150293   16.337994   x
            x    Li       10        8.140024   27.831588   16.338089   x
            x    Li       11        8.141274   18.507137   16.337260   x
            x    Li       12        8.143833    9.191258   16.330198   x
            x    Li       13        8.138590   32.491344   16.324341   x
            x    Li       14        8.139033   23.167993   16.327062   x
            x    Li       15        8.141984   13.849486   16.323531   x
            x    Li       16        8.140900    4.533466   16.328216   x
            x    Li       17       16.236033    9.193989   16.304242   x
            x    Li       18       16.235387   18.506042   16.320863   x
            x    Li       19       16.236448   27.830666   16.328209   x
            x    Li       20       16.236445   37.153218   16.327669   x
            x    Li       21       16.236580   32.489185   16.335273   x
            x    Li       22       16.236094   23.167911   16.332779   x
            x    Li       23       16.235059   13.844282   16.305583   x
            x    Li       24       16.234111    4.538808   16.320974   x
            x    Li       25       24.330445   32.490306   16.322573   x
            x    Li       26       24.330561   23.168590   16.324349   x
            x    Li       27       24.327125   13.849327   16.320671   x
            x    Li       28       24.330057    4.532435   16.323260   x
            x    Li       29       24.329644   37.151052   16.334292   x
            x    Li       30       24.330060   27.831680   16.332397   x
            x    Li       31       24.328544   18.508431   16.332371   x
            x    Li       32       24.323850    9.191978   16.325718   x
            x    Li       33       32.413867   37.149654   16.322197   x
            x    Li       34       32.415111   27.831503   16.321766   x
            x    Li       35       32.413580   18.510512   16.321593   x
            x    Li       36       32.413292    9.189422   16.322645   x
            x    Li       37       32.411517   32.489545   16.330149   x
            x    Li       38       32.410613   23.169752   16.330011   x
            x    Li       39       32.411498   13.853044   16.334509   x
            x    Li       40       32.411705    4.530194   16.333291   x
            x    Li       41       40.464589   32.487826   16.316067   x
            x    Li       42       40.464046   23.172624   16.320190   x
            x    Li       43       40.461137   13.850954   16.317505   x
            x    Li       44       40.461223    4.530115   16.320091   x
            x    Li       45       40.459482   37.148431   16.330246   x
            x    Li       46       40.464493   27.833909   16.322319   x
            x    Li       47       40.457056   18.510516   16.331384   x
            x    Li       48       40.458381    9.191177   16.330342   x
            x    Li       49       48.476697   37.145655   16.313758   x
            x    Li       50       48.476150   27.834638   16.298169   x
            x    Li       51       48.477407   18.514103   16.320270   x
            x    Li       52       48.476681    9.189477   16.318010   x
            x    Li       53       48.477746   32.484126   16.295250   x
            x    Li       54       48.476917   23.177118   16.311929   x
            x    Li       55       48.477837   13.850781   16.331641   x
            x    Li       56       48.478455    4.530560   16.327567   x
            x    Li       57       56.520151   32.487361   16.318170   x
            x    Li       58       56.522728   23.172483   16.320711   x
            x    Li       59       56.523807   13.851320   16.319177   x
            x    Li       60       56.523162    4.529730   16.321249   x
            x    Li       61       56.524327   37.149160   16.329917   x
            x    Li       62       56.519298   27.833991   16.323028   x
            x    Li       63       56.525985   18.509896   16.332086   x
            x    Li       64       56.525458    9.189564   16.329534   x
[...]
 C   503 -- C   528       -0.07     -0.00      5.39617
 C   443 -- C   651       -0.07      0.00      5.39620
 C   173 -- C   181       -0.05      0.00      5.39625
 C   287 -- C   289       -0.05      0.00      5.39626
 C   484 -- C   499       -0.07      0.00      5.39626
 C   505 -- C   527       -0.07     -0.00      5.39630
 C   532 -- C   563       -0.07      0.00      5.39642
 C   445 -- C   653       -0.07      0.00      5.39644
 C   446 -- C   649       -0.07      0.00      5.39648
 C   622 -- C   644       -0.07     -0.00      5.39648
 C   482 -- C   504       -0.07     -0.00      5.39652
 C   536 -- C   562       -0.07      0.00      5.39659
 C   620 -- C   645       -0.07     -0.00      5.39661
 C   601 -- C   616       -0.07      0.00      5.39665
 C   453 -- C   475       -0.07      0.00      5.39667
 C   599 -- C   621       -0.07     -0.00      5.39668
 C   450 -- C   476       -0.07     -0.00      5.39677
 C   423 -- C   433       -0.07      0.00      5.39686
 C   567 -- C   593       -0.07     -0.00      5.39700
 C   424 -- C   432       -0.07      0.00      5.39719
 C   570 -- C   592       -0.07      0.00      5.39720
 C   419 -- C   426       -0.07      0.00      5.39746
 C   626 -- C   656       -0.07     -0.00      5.39749
 C   420 -- C   425       -0.07      0.00      5.39773
 C   628 -- C   655       -0.07     -0.00      5.39785
 C   511 -- C   538       -0.07     -0.00      5.39791
 C   559 -- C   590       -0.07      0.00      5.39807
 C   441 -- C   479       -0.07     -0.00      5.39821
 C   509 -- C   539       -0.07     -0.00      5.39823
 C   558 -- C   596       -0.07     -0.00      5.39824
 C   442 -- C   473       -0.07      0.00      5.39841
 C   259 -- C   261       -0.05      0.00      5.39921
 C   318 -- C   324       -0.05     -0.00      5.39931
 C   564 -- C   588       -0.07      0.00      5.39946
 C   438 -- C   452       -0.07      0.00      5.39952
 C   561 -- C   595       -0.07      0.00      5.39953
 C   373 -- C   377       -0.05      0.00      5.39957
 C   437 -- C   454       -0.07     -0.00      5.39960
 C   629 -- C   652       -0.07      0.00      5.39967
 C   526 -- C   557       -0.07     -0.00      5.39968
 C   529 -- C   556       -0.07      0.00      5.39976
 C   449 -- C   483       -0.07      0.00      5.39982
 C   444 -- C   478       -0.07      0.00      5.39985
 C   199 -- C   204       -0.05     -0.00      5.39986
 C   447 -- C   471       -0.07      0.00      5.39986
 C   627 -- C   654       -0.07     -0.00      5.39991
 C   474 -- C   507       -0.07      0.00      5.39999
 C   594 -- C   618       -0.07      0.00      5.40000
 C   431 -- C   569       -0.07      0.00      5.40002
 C   430 -- C   571       -0.07     -0.00      5.40004
 C   589 -- C   623       -0.07      0.00      5.40009
 C   510 -- C   537       -0.07     -0.00      5.40015
 C   439 -- C   646       -0.07      0.00      5.40017
 C   500 -- C   533       -0.07     -0.00      5.40019
 C   508 -- C   530       -0.07      0.00      5.40020
 C   591 -- C   624       -0.07      0.00      5.40021
 C   451 -- C   481       -0.07      0.00      5.40022
 C   512 -- C   535       -0.07      0.00      5.40032
 C   440 -- C   643       -0.07     -0.00      5.40033
 C   477 -- C   501       -0.07      0.00      5.40037
 C   472 -- C   506       -0.07      0.00      5.40037
 C   617 -- C   650       -0.07     -0.00      5.40045
 C   566 -- C   600       -0.07      0.00      5.40045
 C   568 -- C   598       -0.07      0.00      5.40055
 C   480 -- C   502       -0.07      0.00      5.40057
 C   625 -- C   647       -0.07      0.00      5.40057
 C   597 -- C   619       -0.07      0.00      5.40070
 C   139 -- C   235       -0.05      0.00      5.40215
 C   345 -- C   347       -0.05      0.00      5.40261
 C   314 -- C   326       -0.05     -0.00      5.40271
 C   170 -- C   172       -0.05      0.00      5.40332
 C   290 -- C   298       -0.04      0.00      5.40339
 C   265 -- C   267       -0.04      0.00      5.40496
 C   236 -- C   237       -0.05      0.00      5.40505
 C   129 -- C   130       -0.04     -0.00      5.40558
 C   369 -- C   370       -0.04      0.00      5.40560
 C   169 -- C   171       -0.05      0.00      5.40572
 C   343 -- C   350       -0.04      0.00      5.40615
 C   295 -- C   297       -0.04      0.00      5.40693
=============================================================

(P)DSYGVX in subroutine dense_eigensolve returned info=    2
 ifail= 2*0
 iclustr= 50,  160
 gap= 1.E-5,  2.E-5
(P)DSYGVX in subroutine dense_eigensolve returned info=    2
 ifail= 2*0
 iclustr= 50,  160
 gap= 1.E-5,  2.E-5

============== Orbital energy and occupancy information for spin 1 =============

      Total number of orbitals:    2848
        Occupancy sum (kernel):    1261.007451693
   Occupancy sum (eigenvalues):    1261.007451693
                 HOMO-LUMO gap:       0.000006439 Eh
                 Mid-gap level:      -0.163580570 Eh

                        Orbital | Energy (Eh) | Occupancy
                            1    -1.914717259   1.0000000
                        .......   ...........   .........
                         1252    -0.168161283   0.8129037
                         1253    -0.168132783   0.8116281
                         1254    -0.168107150   0.8105658
                         1255    -0.167849666   0.8000219
                         1256    -0.167841271   0.7996569
                         1257    -0.164581398   0.6200462
                         1258    -0.164328916   0.6034242
                         1259    -0.163599536   0.5636974
                         1260    -0.163592255   0.5631989
                         1261    -0.163583790   0.5627000
                        ....... -- gap at 0K -- .........
                         1262    -0.163577351   0.5622554
                         1263    -0.162864488   0.5167476
                         1264    -0.162834316   0.5145763
                         1265    -0.162473621   0.4876137
                         1266    -0.162469087   0.4872584
                         1267    -0.161895521   0.4512354
                         1268    -0.161841217   0.4475380
                         1269    -0.157303443   0.1905360
                         1270    -0.157286385   0.1898174
                         1271    -0.157245924   0.1881315
                        .......   ...........   .........
                         2848     0.711637950   0.0000000

================================================================================

============== Orbital energy and occupancy information for spin 2 =============

      Total number of orbitals:    2848
        Occupancy sum (kernel):    1261.007451682
   Occupancy sum (eigenvalues):    1261.007451682
                 HOMO-LUMO gap:       0.000712864 Eh
                 Mid-gap level:      -0.163220919 Eh

                        Orbital | Energy (Eh) | Occupancy
                            1    -1.914717259   1.0000000
                        .......   ...........   .........
                         1253    -0.168132783   0.8116281
                         1254    -0.168107150   0.8105658
                         1255    -0.167849666   0.8000219
                         1256    -0.167841271   0.7996569
                         1257    -0.164581398   0.6200462
                         1258    -0.164328916   0.6034242
                         1259    -0.163599536   0.5636974
                         1260    -0.163592255   0.5631989
                         1261    -0.163583790   0.5627000
                         1262    -0.163577351   0.5622554
                        ....... -- gap at 0K -- .........
                         1263    -0.162864488   0.5167476
                         1264    -0.162834316   0.5145763
                         1265    -0.162473621   0.4876137
                         1266    -0.162469087   0.4872584
                         1267    -0.161895521   0.4512354
                         1268    -0.161841217   0.4475380
                         1269    -0.157303443   0.1905360
                         1270    -0.157286385   0.1898174
                         1271    -0.157245924   0.1881315
                         1272    -0.157222753   0.1871738
                        .......   ...........   .........
                         2848     0.711637950   0.0000000

================================================================================

===================== Writing canonical molecular orbitals =====================
    Spin 1
| Orbital  Energy (eV)  Norm     |
| HOMO-5   -4.56719339  1.000000 | 
| HOMO-4   -4.47848771  1.000000 | 
| HOMO-3   -4.47161734  1.000000 | 
| HOMO-2   -4.45176989  1.000000 | 
| HOMO-1   -4.45157176  1.000000 | 
| HOMO     -4.45134142  1.000000 | 
| LUMO     -4.45116622  1.000000 | 
| LUMO+1   -4.43176821  1.000000 | 
| LUMO+2   -4.43094719  1.000000 | 
| LUMO+3   -4.42113218  1.000000 | 
| LUMO+4   -4.42100881  1.000000 | 
| LUMO+5   -4.40540128  1.000000 | 
================================================================================

===================== Writing canonical molecular orbitals =====================
    Spin 2
| Orbital  Energy (eV)  Norm     |
| HOMO-5   -4.47848771  1.000000 | 
| HOMO-4   -4.47161734  1.000000 | 
| HOMO-3   -4.45176989  1.000000 | 
| HOMO-2   -4.45157176  1.000000 | 
| HOMO-1   -4.45134142  1.000000 | 
| HOMO     -4.45116622  1.000000 | 
| LUMO     -4.43176821  1.000000 | 
| LUMO+1   -4.43094719  1.000000 | 
| LUMO+2   -4.42113218  1.000000 | 
| LUMO+3   -4.42100881  1.000000 | 
| LUMO+4   -4.40540128  1.000000 | 
| LUMO+5   -4.40392359  1.000000 | 
================================================================================
 
=============== Density of States (DOS) calculation for UP spin ================
Writing "graphite_UP_DOS.txt" ... done
================================================================================
 
============== Density of States (DOS) calculation for DOWN spin ===============
Writing "graphite_DN_DOS.txt" ... done
================================================================================
 
Writing bands to file "graphite.val_bands" ... done

IS: Calculating electrolyte contribution to the atomic forces ...
================================================================================
 
***********************************************************
********** Summary of Forces (values in Eh/a) *************
*                                                         *
* ---------------------- Minimum ------------------------ *
* Atom:       239, |F|min =    0.00008980                 *
* Components:     Fx|min       Fy|min       Fz|min        *
*               0.00001116   0.00001602  -0.00008765      *
*                                                         *
* ---------------------- Maximum ------------------------ *
* Atom:       519, |F|max =    0.00153254                 *
* Components:     Fx|max       Fy|max       Fz|max        *
*              -0.00019924  -0.00052937   0.00142434      *
*                                                         *
* ---------------- Root Mean Square Force --------------- *
*                  |F|rms =    0.00070965                 *
* Components:     Fx|rms       Fy|rms       Fz|rms        *
*               0.00026224   0.00035414   0.00055626      *
***********************************************************
 

                                                      hartree           kcal/mol
IS: NB: Energy of pure electrolyte:         -0.07888634725190         -49.501929

------------------------------ TIMING INFORMATION ------------------------------
AVERAGE TIME:   17586.074s on    128 proc(s)                                    
TOTAL TIME:     17586.078s on    128 proc(s)                                    
================= AVERAGE TIMINGS FROM ALL PROCS (CUMULATIVE) ==================
|| TAG                                    #calls    cpu time   %total  Gflops ||
|| linalg_invert_sym_matrix             :     4        0.00s   0.000%  ------ || (1 procs only)
|| density_fftbox_interp_mult_imbal     : 28400        0.00s   0.000%  ------ ||
|| sparse_set_to_garbage                :   252        0.02s   0.000%  ------ ||
|| onetep.F90 main loop imbalance       :     1        0.02s   0.000%  ------ ||
|| onetep.F90 final imbalance           :     1        0.04s   0.000%  ------ ||
|| vdwcorrection_calculate_forces       :     7        0.04s   0.000%  ------ ||
|| ewald_calculate_forces_realspace     :     7        0.04s   0.000%  ------ ||
|| vdwcorrection_calculate_energy       :     7        0.07s   0.000%  ------ ||
|| basis_extract_function_from_box      :  1846        0.13s   0.001%  ------ ||
|| pseudopotentials_core_density        :     7        0.13s   0.001%  ------ ||
|| pseudopotentials_local_on_grid       :     7        0.14s   0.001%  ------ ||
|| parallel_prepare_fd_halos_alloc      : 44040        0.25s   0.001%  ------ ||
|| parallel_prepare_fd_halos_request    : 44040        0.42s   0.002%  ------ ||
|| pseudopotentials_nonlocal_mat        :    35        0.51s   0.003%  ------ ||
|| sparse_spam3toblacs_real_fast_imbal  :  2162        0.51s   0.003%  ------ ||
|| restart_hamiltonian_read             :     7        0.52s   0.003%  ------ ||
|| sparse_blacstospam3_real_fast_imbal  :  2128        0.96s   0.005%  ------ ||
|| pseudo_make_structure_factor         :     7        1.17s   0.007%  ------ ||
|| smeared_ion_generate_potential_PBC   :     7        1.41s   0.008%  ------ ||
|| restart_hamiltonian_write            :    19        1.49s   0.008%  ------ ||
|| parallel_prepare_fd_halos_satisfy    : 44040        1.99s   0.011%  ------ ||
|| sparse_spam3toblacs_real_fast_B2     : 276.7k       2.61s   0.015%  ------ ||
|| energy_and_force_init_cell           :     1        2.72s   0.015%  ------ ||
|| sparse_init                          :     7        3.17s   0.018%  ------ ||
|| pseudo_local_calculate_forces        :     7        4.26s   0.024%  ------ ||
|| integrals_grad_spam3                 :     7        4.99s   0.028%  ------ ||
|| nonsc_forces_ngwfs_calc              :     7        5.01s   0.028%  ------ ||
|| density_init_guess_real              :     7        5.02s   0.029%  ------ ||
|| eigenstates_calculate                :     1        5.45s   0.031%  ------ ||
|| pseudo_nlcc_calculate_forces         :     7        5.49s   0.031%  ------ ||
|| restart_kernel_write                 :    26        6.21s   0.035%  ------ ||
|| ewald_calculate_energy               :     7        6.45s   0.037%  ------ ||
|| ngwf_gradient_coeffs                 :    19        7.27s   0.041%  ------ ||
|| projectors_func_grad_ovlp_box_spam3  :    21        8.49s   0.048%  ------ ||
|| pseudo_nl_calculate_forces           :     7       10.25s   0.058%  ------ ||
|| fourier_filter_cell                  :   434       11.55s   0.066% 209.306 ||
|| projectors_init_fftbox_recip         :   132       12.79s   0.073%  ------ ||
|| restart_ngwfs_tightbox_input         :     7       13.32s   0.076%  ------ ||
|| projectors_func_ovlp_box_spam3       :    35       13.38s   0.076%  ------ ||
|| sparse_embed_hotelling_invert_embed  :    35       14.04s   0.080%  ------ ||
|| boltzmann_init_steric_pot            :     7       15.37s   0.087%  ------ ||
|| parallel_prepare_fd_halos_comms_imbal: 44040       17.35s   0.099%  ------ ||
|| parallel_prepare_fd_halos_clear      : 44040       17.72s   0.101%  ------ ||
|| fourier_apply_box_pair               :  2174       18.35s   0.104%  1.913k ||
|| ewald_calculate_forces_recipspace    :     7       20.98s   0.119%  ------ ||
|| ewald_calculate_forces               :     7       21.10s   0.120%  ------ ||
|| sparse_trace                         :  8046       22.75s   0.129%  ------ ||
|| parallel_prepare_fd_halos_comms_wait : 44040       29.74s   0.169%  ------ ||
|| basis_copy_function_to_box           : 35844       30.35s   0.173%  ------ ||
|| properties_calculate                 :     1       35.57s   0.202%  ------ ||
|| function_ops_brappd_ketppd_spam3     :    63       35.88s   0.204%  ------ ||
|| integrals_kinetic_spam3              :    35       53.85s   0.306%  ------ ||
|| fourier_interpolate_cell             :  1136       54.76s   0.311% 115.576 ||
|| projectors_gradient_batch            :    76       66.86s   0.380%  ------ ||
|| parallel_prepare_fd_halos            : 44040       67.73s   0.385%  ------ ||
|| fourier_apply_cell_backward          :  4663       75.33s   0.428% 174.071 ||
|| sparse_spam3toblacs_real_fast_B1     : 276.7k     100.41s   0.571%  ------ ||
|| sparse_spam3toblacs_real_fast        :  2162      109.04s   0.620%  ------ ||
|| sparse_product                       :  4505      109.76s   0.624%  ------ ||
|| restart_ngwfs_tightbox_output        :    13      140.19s   0.797%  ------ ||
|| basis_dot_function_with_box          : 7.663M     141.11s   0.802%  ------ ||
|| cell_grid_extract_box_real           : 11246      161.64s   0.919%  ------ ||
|| xc_energy_potential                  :   575      170.61s   0.970%  ------ ||
|| fourier_apply_cell_forward           :  4635      176.89s   1.006%  73.688 ||
|| finite_difference_derivative         : 44040      205.32s   1.168%  ------ ||
|| sparse_blacstospam3_real_fast        :  2128      227.99s   1.296%  ------ ||
|| hamiltonian_energy_components        :     7      300.77s   1.710%  ------ ||
|| ngwf_gradient_build_batch            :    76      314.36s   1.788%  ------ ||
|| implicit_solvent_boltzmann_forces    :     7      416.84s   2.370%  ------ ||
|| basis_add_function_to_box            : 23.65M     434.51s   2.471%  ------ ||
|| dense_eigensolve                     :  1038      436.82s   2.484%  ------ ||
|| cell_grid_deposit_box_real           : 29084      472.52s   2.687%  ------ ||
|| ngwf_gradient_batch                  :    76      521.93s   2.968%  ------ ||
|| edft_diag_ngwf_ham                   :  1036      539.18s   3.066%  ------ ||
|| ngwf_gradient_lnv                    :    19      542.28s   3.084%  ------ ||
|| integrals_locpot_mat_els_batch       :   792      606.04s   3.446%  ------ ||
|| smeared_ion_force_correction         :    14      828.50s   4.711%  ------ ||
|| implicit_solvent_soft_sphere_forces  :     7      863.40s   4.910%  ------ ||
|| edft_apply_smearing_operator         :   518      872.01s   4.958%  ------ ||
|| density_batch_row_sums               :  2272     1382.28s   7.860%  ------ ||
|| density_fftbox_deposit_to_cell       : 28400     1886.23s  10.726%  ------ ||
|| dl_mg_solver_calls                   :   568     1900.40s  10.806%  ------ ||
|| potential_apply_to_ngwf_batch        :   792     1902.57s  10.819%  ------ ||
|| multigrid_calculate_hartree          :   568     1965.66s  11.177%  ------ ||
|| fourier_apply_box                    : 75990     1986.13s  11.294%  3.018k ||
|| forces_calculate                     :     7     2244.13s  12.761%  ------ ||
|| density_fftbox_interpolate_multiply  : 28400     2259.59s  12.849%  ------ ||
|| integrals_locpot_dbl_grid            :   396     2511.42s  14.281%  ------ ||
|| density_batch_interp_deposit         :  2272     5544.84s  31.530%  ------ ||
|| density_on_dbl_grid                  :  1136     7197.89s  40.929%  ------ ||
|| hamiltonian_lhxc_calculate           :   554     9557.01s  54.344%  ------ ||
|| edft_calculate                       :    19    12441.34s  70.745%  ------ ||
|| ngwf_cg_optimise                     :     7    13821.57s  78.594%  ------ ||
|| energy_and_forces                    :     7    17524.47s  99.650%  ------ ||
|| total_time                           :     1    17586.07s 100.000%  ------ ||
================================================================================
Overhead of generating timer report: 
- 0 ms averaging over threads,
- 65 ms ensuring consistency across MPI ranks,
- 92 ms printing in order.

Job completed: 01-11-2023 04:05 (+0000)

