1119      
Geometry optimisation iteration:    12 | Lattice="34.1692 0.0000 0.0000  0.0000 39.4552 0.0000  0.0000 0.0000 100.0000"
C    22.103316    1.165454    3.436631
C    26.374333    1.165496    3.379701
C    30.645769    1.165791    3.343619
C     6.443658    1.165476    3.354556
C    10.714683    1.165660    3.398416
C     2.172223    1.165797    3.337609
C    14.985647    1.165589    3.446118
C    19.256195    1.165387    3.456787
C    23.527163    1.165627    3.418502
C    27.798316    1.165506    3.363173
C    32.069812    1.165903    3.338545
C     0.748211    1.165885    3.336655
C     5.019848    1.165509    3.346783
C     9.290915    1.165600    3.381602
C    13.561985    1.165546    3.433261
C    17.832565    1.165501    3.459241
C    15.697191    2.398491    3.457951
C    19.967745    2.398439    3.460594
C    24.238789    2.398747    3.414077
C     4.307921    2.398690    3.338220
C    28.509942    2.398736    3.356485
C     0.036365    2.399128    3.331168
C     8.579055    2.398691    3.372275
C    12.850057    2.398606    3.429759
C    17.120812    2.398556    3.463978
C    21.391591    2.398531    3.449570
C    25.662764    2.398763    3.392399
C    29.933998    2.398954    3.344408
C    32.781526    2.399138    3.333361
C     2.883908    2.398901    3.334270
C     7.155205    2.398517    3.357515
C    11.426310    2.398639    3.411112
C    13.561562    3.631515    3.449088
C    17.832268    3.631557    3.475566
C     2.171930    3.632156    3.329079
C    22.103335    3.631698    3.452999
C    26.374383    3.631899    3.390171
C     6.443403    3.631775    3.351167
C    10.714337    3.631779    3.408800
C    14.985245    3.631572    3.462596
C    19.255979    3.631621    3.473086
C    23.527205    3.631934    3.434325
C    27.798325    3.632016    3.368894
C    30.645754    3.632193    3.340656
C     0.747962    3.632229    3.328278
C     5.019461    3.631828    3.340504
C    32.069750    3.632342    3.332881
C     9.290605    3.631729    3.387144
C     0.036121    4.865301    3.327299
C    11.425715    4.864485    3.432247
C    15.696602    4.864317    3.479795
C    19.967703    4.864533    3.481830
C    24.238852    4.864829    3.437513
C     4.307481    4.864952    3.336684
C     8.578776    4.864774    3.384664
C    12.849376    4.864501    3.452368
C    17.120263    4.864498    3.485165
C    21.391581    4.864716    3.471619
C    25.662743    4.864869    3.413891
C    28.510127    4.864916    3.368298
C    29.933996    4.865174    3.350497
C    32.781423    4.865236    3.331343
C     2.883486    4.865041    3.330576
C     7.154961    4.864636    3.364246
C     9.290107    6.097315    3.408295
C    13.560827    6.096970    3.472968
C    17.832018    6.097115    3.495847
C    22.103428    6.097390    3.477226
C    32.069728    6.098082    3.338851
C     2.171605    6.098064    3.330244
C     6.443058    6.097616    3.362481
C    10.713706    6.097337    3.432761
C    14.984609    6.097174    3.485269
C    19.255843    6.097344    3.493769
C    23.527290    6.097585    3.460724
C    26.374534    6.097543    3.416889
C    27.798413    6.097731    3.391721
C    30.645842    6.097911    3.351809
C     0.747686    6.098025    3.329223
C     5.019070    6.097633    3.346929
C     7.154572    7.330193    3.383596
C    11.425088    7.329800    3.455130
C    15.696265    7.329683    3.495890
C    19.967889    7.329911    3.497381
C    29.934124    7.330747    3.372593
C     0.035992    7.330949    3.335710
C     4.307122    7.330663    3.347842
C     8.578303    7.330225    3.407426
C    12.848787    7.329853    3.473354
C    17.120105    7.330039    3.499832
C    21.391730    7.330199    3.490333
C    25.662965    7.330368    3.443392
C    24.239125    7.330215    3.464117
C    28.510270    7.330486    3.395432
C    32.781395    7.330767    3.342731
C     2.883160    7.330811    3.339006
C     5.018739    8.563429    3.366436
C     9.289569    8.562876    3.430659
C    13.560400    8.562563    3.483557
C    17.832054    8.562701    3.498265
C    27.798617    8.563432    3.423538
C    32.069778    8.563714    3.360890
C     2.171392    8.563966    3.345887
C     6.442661    8.563279    3.384767
C    10.713210    8.562910    3.451879
C    23.527576    8.563250    3.478744
C    14.984327    8.562904    3.492235
C    19.256048    8.562927    3.497110
C    22.103675    8.562993    3.488882
C    26.374757    8.563177    3.446518
C    30.645917    8.563549    3.378518
C     0.747537    8.563805    3.345046
C     7.153987    9.796031    3.408433
C    11.424584    9.795668    3.462853
C    15.695935    9.795830    3.485378
C    25.663243    9.796397    3.463884
C    29.934242    9.796649    3.406480
C     0.035959    9.796908    3.361549
C     4.306882    9.796722    3.373419
C    21.391930    9.796114    3.484970
C     8.577733    9.796007    3.428452
C    12.848458    9.795861    3.474245
C    17.120098    9.796141    3.486688
C    19.967901    9.795839    3.486334
C    24.239347    9.796158    3.475588
C    28.510329    9.796387    3.428416
C    32.781410    9.796603    3.371364
C     2.882972    9.796849    3.363524
C     5.018409   11.029495    3.397327
C     9.289033   11.028843    3.442989
C    13.560004   11.028723    3.465259
C    23.527662   11.029434    3.471153
C    27.798677   11.029682    3.449661
C    19.255805   11.029125    3.465298
C    32.069824   11.029771    3.398134
C     2.171243   11.029988    3.378935
C     6.442183   11.029318    3.412341
C    10.712790   11.028873    3.454049
C    14.983959   11.029123    3.466312
C    17.831729   11.028977    3.464754
C    22.103742   11.029094    3.470553
C    26.374828   11.029386    3.462318
C    30.645981   11.029627    3.415479
C     0.747505   11.029850    3.378898
C    32.781326   12.262643    3.412449
C     2.882758   12.262601    3.402031
C     7.153400   12.262113    3.431233
C    21.391527   12.262099    3.442923
C    11.424214   12.261690    3.448590
C    17.119564   12.262083    3.434295
C    25.663170   12.262537    3.461514
C    29.934226   12.262727    3.439781
C     0.035876   12.262777    3.402851
C     4.306527   12.262562    3.409100
C     8.577164   12.262087    3.440423
C    12.848099   12.261943    3.446415
C    15.695468   12.261866    3.438011
C    19.967383   12.261955    3.435855
C    24.239419   12.262218    3.458426
C    28.510483   12.262542    3.452347
C    30.645982   13.495307    3.447508
C     0.747398   13.495324    3.422247
C    19.255215   13.494526    3.394413
C     5.017956   13.495175    3.430030
C     9.288453   13.494729    3.441503
C    23.527579   13.494829    3.431085
C    27.798710   13.495470    3.458144
C    32.069597   13.495424    3.436859
C     2.171083   13.495343    3.420845
C     6.441755   13.495192    3.435962
C    10.712440   13.494829    3.437656
C    13.559646   13.494472    3.417428
C    17.831117   13.494427    3.393726
C    22.103597   13.494536    3.415513
C    14.983638   13.494820    3.407546
C    26.375011   13.495123    3.455150
C    17.119131   14.727224    3.355867
C    28.510677   14.728127    3.458382
C    32.781295   14.728054    3.448619
C     2.882547   14.727979    3.439754
C     7.152929   14.727948    3.442611
C    21.391402   14.726967    3.371026
C    25.663470   14.727940    3.435511
C    29.934373   14.728194    3.458981
C     0.035810   14.728087    3.442528
C     4.306308   14.728088    3.440937
C     8.576815   14.727925    3.438190
C    11.424088   14.727325    3.415437
C    12.847998   14.727470    3.397211
C    15.695110   14.727155    3.365576
C    19.967165   14.726843    3.356648
C    24.239897   14.727355    3.414754
C    26.375452   15.960876    3.430310
C    30.646145   15.961006    3.463080
C     0.747307   15.960976    3.454962
C     5.017609   15.961145    3.450293
C    14.983536   15.960306    3.340019
C    19.255309   15.959759    3.317798
C    23.528261   15.960140    3.376464
C    27.799135   15.961176    3.448556
C    32.069840   15.961102    3.461408
C     2.171050   15.961002    3.452553
C     6.441386   15.961182    3.445740
C     9.288212   15.960714    3.424850
C    10.712259   15.960685    3.406846
C    13.559609   15.960084    3.360541
C    17.830994   15.959817    3.316879
C    22.103993   15.959839    3.348549
C    24.240423   17.193572    3.370847
C    28.511051   17.194323    3.448848
C    32.781430   17.194398    3.466546
C     2.882459   17.194375    3.460272
C    12.847990   17.193637    3.352037
C    17.119250   17.193302    3.293723
C    21.392095   17.193110    3.312475
C    25.664213   17.194055    3.402237
C    29.934809   17.194424    3.460671
C     0.035986   17.194404    3.464446
C     4.306133   17.194478    3.456318
C     8.576632   17.194335    3.424544
C     7.152694   17.194508    3.440172
C    11.423780   17.193659    3.379092
C    15.695084   17.193298    3.305602
C    19.967519   17.192993    3.295849
C    22.104293   18.426836    3.309715
C    26.376113   18.427468    3.403208
C    30.646459   18.427725    3.461741
C     0.747416   18.427855    3.467374
C    10.711979   18.427304    3.380603
C    14.983519   18.426912    3.300444
C    19.255506   18.426675    3.276770
C    23.528641   18.426989    3.339853
C    27.799758   18.427722    3.429759
C     6.441218   18.427956    3.443120
C    32.070122   18.427910    3.466946
C     2.171142   18.427809    3.464622
C     5.017464   18.427932    3.454698
C     9.287878   18.427549    3.406145
C    13.559406   18.426949    3.324327
C    17.831232   18.426652    3.274591
C    24.240701   19.660600    3.346201
C    28.511509   19.660793    3.431828
C    32.781599   19.660971    3.466095
C     8.576443   19.660777    3.411717
C    12.847626   19.660298    3.331078
C    17.119304   19.660082    3.272162
C    21.392066   19.660333    3.292020
C     4.306158   19.661037    3.456678
C    25.664588   19.660674    3.377092
C    29.935111   19.660862    3.450072
C     0.036058   19.661049    3.466711
C     2.882551   19.660957    3.462965
C     7.152678   19.660995    3.431914
C    11.423376   19.660442    3.359304
C    15.695153   19.660233    3.284085
C    19.967645   19.660196    3.275886
C    10.004472    4.863636    6.664365
C     7.156716    4.862650    6.624117
C     7.869499    6.095867    6.642300
C     9.292794    6.095237    6.664239
C    27.107137   14.725767    6.717885
C    24.264021   14.718640    6.668894
C    24.979927   15.953901    6.660652
C    26.401459   15.958361    6.690584
C     7.867891    3.629883    6.626625
C     9.291789    3.630514    6.642726
C    11.425751    7.323705    6.713812
C    10.003799    7.326520    6.689349
C     7.158262    7.328233    6.642615
C     7.870377    8.559903    6.665751
C     9.292249    8.556871    6.687378
C    24.971030   13.488572    6.712538
C    26.393001   13.491956    6.724619
C    28.534932   17.195853    6.715564
C    27.114632   17.193296    6.689866
C    24.272918   17.185618    6.618862
C    24.987995   18.426152    6.613433
C    26.410605   18.429010    6.656362
C     7.866773    1.164613    6.624559
C     9.290345    1.165285    6.635687
C    12.140245    1.165963    6.667387
C     5.021030    1.163746    6.608479
C    33.499693    1.169245    6.601082
C     3.598773    1.164560    6.604655
C    16.413292    1.166130    6.708447
C     0.753284    1.166968    6.600565
C    13.564391    1.165860    6.683428
C    17.836662    1.166161    6.712160
C    20.685539    1.166522    6.701071
C    29.229858    1.170789    6.612475
C    30.652993    1.171067    6.605789
C    24.960029    1.168397    6.650775
C    22.110125    1.166815    6.686215
C    26.383788    1.169601    6.634232
C    10.003507    2.397913    6.645487
C     7.155405    2.396576    6.617197
C     5.732199    2.396047    6.608908
C    14.276999    2.398358    6.699946
C     2.886276    2.396514    6.598712
C    11.427947    2.398230    6.663114
C    31.363974    2.403016    6.601643
C     1.463371    2.398400    6.597251
C    18.548845    2.398663    6.721013
C    32.786693    2.401406    6.597924
C    15.700783    2.398066    6.712733
C    22.823350    2.399742    6.684974
C    27.096042    2.402327    6.629726
C    19.972873    2.398447    6.714402
C    28.518908    2.403157    6.616507
C    24.248155    2.400789    6.664906
C    12.140425    3.631263    6.685344
C    33.497082    3.633050    6.595170
C     3.597067    3.629252    6.598884
C    16.412868    3.630346    6.731551
C    20.685903    3.630622    6.722837
C    30.652449    3.634584    6.604249
C     0.750654    3.631005    6.593908
C     5.020521    3.628691    6.604220
C    13.564411    3.630415    6.704707
C    17.836493    3.630263    6.734820
C    29.230526    3.634299    6.614369
C    24.961200    3.633115    6.666014
C    22.110658    3.631229    6.706774
C    26.384949    3.633853    6.644795
C    27.097393    4.864497    6.646885
C    31.363650    4.864946    6.603261
C     1.461415    4.863536    6.594036
C    14.276247    4.862131    6.729180
C    18.549537    4.861822    6.748825
C    22.824534    4.862955    6.714032
C    28.519943    4.864615    6.627552
C    32.785363    4.864904    6.596699
C     2.884757    4.862419    6.596424
C    11.427977    4.862926    6.687924
C    15.699745    4.861016    6.741523
C    19.973720    4.861847    6.742720
C    24.249111    4.863976    6.692120
C     5.732753    4.862365    6.611436
C    24.962106    6.095216    6.698905
C    29.232336    6.094734    6.630029
C    33.496744    6.096643    6.598037
C    16.412745    6.091649    6.757419
C    20.687672    6.093045    6.751349
C    26.386033    6.095140    6.673556
C    30.653939    6.095521    6.614147
C     0.749894    6.096414    6.595468
C    17.837431    6.092126    6.759228
C    22.112512    6.093757    6.738417
C     3.596540    6.095943    6.602189
C    12.139291    6.094510    6.714661
C    13.562465    6.092044    6.734723
C     5.020924    6.095533    6.610515
C    24.250577    7.325924    6.727364
C    22.826224    7.324814    6.744722
C    27.098419    7.326422    6.679795
C    31.365808    7.326898    6.618232
C    18.552308    7.322206    6.763450
C    28.522018    7.325918    6.654321
C    32.787145    7.328435    6.607290
C    15.698931    7.320471    6.757104
C    19.977140    7.323187    6.760004
C     1.461692    7.329462    6.601213
C    14.273722    7.321271    6.750460
C     2.884947    7.329112    6.604211
C     5.734141    7.328965    6.625514
C    24.963433    8.557781    6.732539
C    29.234174    8.558462    6.660870
C    22.115658    8.555185    6.754459
C    26.387361    8.558465    6.710264
C    20.691754    8.553252    6.756652
C    33.498674    8.561208    6.614504
C    16.415010    8.546995    6.749474
C    30.656800    8.558891    6.639393
C    17.840166    8.550009    6.754098
C     3.597665    8.562397    6.617520
C     0.751415    8.562241    6.609856
C    13.557032    8.546915    6.744755
C    12.135712    8.552783    6.729498
C     5.021868    8.561666    6.628475
C    27.099733    9.791508    6.714769
C    24.253082    9.789331    6.747706
C    22.829357    9.786542    6.753848
C    28.523690    9.791723    6.691092
C    18.555472    9.779597    6.734845
C    31.368246    9.792749    6.648354
C    19.981969    9.781632    6.738279
C    32.789898    9.794103    6.633266
C    15.700341    9.776085    6.718408
C     1.463403    9.795751    6.623198
C    14.268930    9.777362    6.728679
C     2.886215    9.795297    6.626280
C     5.734691    9.793901    6.650172
C    10.001903    9.786674    6.704667
C    11.422848    9.782972    6.718978
C     7.157966    9.791179    6.667436
C    24.966034   11.022324    6.744879
C    26.389385   11.024520    6.733365
C    29.235677   11.026112    6.698499
C    22.120224   11.016016    6.737187
C    16.412027   11.012807    6.688774
C    20.695998   11.013294    6.718146
C    33.501757   11.027933    6.647166
C    17.844663   11.011487    6.688003
C    30.659016   11.026411    6.677099
C     0.754026   11.029011    6.640274
C     3.598263   11.028462    6.647372
C    12.130203   11.013238    6.716306
C    13.553833   11.012290    6.707534
C     7.868405   11.022060    6.688940
C     5.021541   11.026280    6.658064
C     9.289435   11.017206    6.703042
C    27.101914   12.258928    6.731733
C    24.257968   12.254677    6.733225
C    22.835365   12.250269    6.722082
C    31.371128   12.260583    6.688891
C    19.984255   12.245520    6.662008
C    28.526036   12.260101    6.720989
C    14.270665   12.245880    6.673890
C    18.555072   12.245582    6.620842
C     1.465201   12.262107    6.660356
C    15.697475   12.248006    6.661729
C    32.793061   12.261276    6.673641
C     5.732402   12.258459    6.681701
C     9.999121   12.247998    6.712227
C     2.886787   12.261333    6.662517
C    11.418983   12.243851    6.708719
C     7.154811   12.254210    6.692940
C    29.238793   13.494115    6.725029
C    16.412049   13.485501    6.640447
C    20.698639   13.481358    6.610246
C    33.504907   13.494491    6.690888
C     3.597391   13.494138    6.686429
C    13.556565   13.480897    6.641314
C    17.840102   13.481836    6.611653
C    22.126301   13.482504    6.653755
C    30.661901   13.494483    6.714466
C     0.756194   13.494613    6.683514
C    12.133202   13.475192    6.680228
C     7.863954   13.486877    6.704887
C     5.019710   13.491992    6.692749
C     9.284097   13.480495    6.710740
C     9.992847   14.714839    6.694165
C    14.269586   14.715926    6.582357
C    18.555258   14.713159    6.504769
C    31.374000   14.727784    6.724380
C     1.466453   14.727348    6.703712
C     5.729451   14.726007    6.705820
C    11.418285   14.714550    6.666657
C    15.700592   14.717071    6.600043
C    19.984120   14.713000    6.535319
C    28.529933   14.727987    6.727857
C    32.795456   14.727477    6.715532
C     2.886874   14.727466    6.703058
C     7.150746   14.722808    6.702892
C    22.844400   14.716794    6.631064
C     7.856594   15.957848    6.688052
C    12.133864   15.952018    6.599336
C    16.411653   15.952516    6.509554
C    33.505887   15.961089    6.727927
C     3.596677   15.961098    6.717148
C     9.278387   15.955380    6.662706
C    13.560064   15.949945    6.557939
C    17.842926   15.949581    6.492664
C     0.757217   15.960358    6.722508
C     5.017812   15.960537    6.711885
C    20.701739   15.947757    6.505608
C    29.242599   15.961114    6.729739
C    30.664688   15.961783    6.734656
C    22.132304   15.947071    6.546369
C     7.147438   17.194144    6.682187
C     5.727339   17.195418    6.704751
C     9.993858   17.191873    6.611193
C    14.274231   17.189597    6.547927
C     1.467121   17.194534    6.732114
C    11.419184   17.191530    6.583438
C    15.698871   17.186501    6.469410
C    32.796139   17.195255    6.739180
C     2.887314   17.194994    6.726746
C    18.556795   17.187491    6.464924
C    31.375027   17.195779    6.739296
C    19.987739   17.185672    6.472982
C    22.845303   17.184818    6.567385
C     7.858047   18.428993    6.661476
C    12.137649   18.426629    6.581965
C     5.016750   18.429973    6.710664
C     9.277626   18.429367    6.631011
C     3.596581   18.429689    6.726197
C    16.413435   18.424784    6.487246
C    33.506144   18.429592    6.742294
C    13.560900   18.424952    6.535611
C     0.757534   18.429151    6.739118
C    20.703608   18.421114    6.486814
C    17.841597   18.423057    6.448858
C    30.665992   18.430407    6.733258
C    29.244916   18.430032    6.716170
C    22.129644   18.423098    6.534243
C     9.992299   19.662423    6.593990
C     7.147250   19.663940    6.668418
C     5.727019   19.664182    6.696186
C    11.420177   19.662076    6.575739
C     1.467478   19.663782    6.736920
C    14.276021   19.661633    6.541393
C     2.887558   19.663815    6.729563
C    15.698358   19.660256    6.457828
C    32.796474   19.664242    6.739372
C    18.555923   19.661029    6.453884
C    31.376002   19.664604    6.733037
C    19.985423   19.664354    6.471128
C    22.845574   19.664315    6.562235
C    27.118755   19.665479    6.656444
C    28.536746   19.664923    6.689706
C    24.274733   19.663818    6.601688
C    22.104329   20.893566    3.304087
C    26.376481   20.893741    3.384000
C    30.646730   20.893700    3.449844
C     6.441334   20.893859    3.436490
C    10.711733   20.893431    3.371481
C     2.171234   20.893842    3.460456
C    14.983413   20.893328    3.296369
C    19.255534   20.893397    3.275865
C    23.528622   20.893685    3.328203
C    27.800004   20.893658    3.411194
C    32.070200   20.893816    3.458231
C     0.747641   20.893902    3.462503
C     5.017710   20.893928    3.449498
C     9.287827   20.893665    3.397334
C    13.559223   20.893536    3.317737
C    17.831281   20.893349    3.273224
C    15.695237   22.126606    3.299983
C    19.967684   22.126451    3.293790
C    24.240699   22.126676    3.343521
C     4.306301   22.126546    3.449150
C    28.511540   22.126456    3.417017
C     0.036168   22.126505    3.454696
C     8.576434   22.126354    3.410426
C    12.847535   22.126391    3.338772
C    17.119492   22.126429    3.291134
C    21.392040   22.126611    3.305169
C    25.664576   22.126630    3.367890
C    29.935081   22.126288    3.435206
C    32.781776   22.126444    3.453003
C     2.882700   22.126513    3.453725
C     7.152685   22.126597    3.428205
C    11.423391   22.126552    3.363564
C    13.559330   23.359875    3.345716
C    17.831499   23.359656    3.314151
C     2.171360   23.359206    3.446101
C    22.104316   23.359650    3.329201
C    26.376026   23.359705    3.382978
C     6.441500   23.359411    3.435572
C    10.711974   23.359541    3.388230
C    14.983699   23.359668    3.329070
C    19.255822   23.359591    3.315336
C    23.528501   23.359725    3.343978
C    27.799698   23.359289    3.403996
C    30.646557   23.359253    3.434611
C     0.747765   23.359283    3.445918
C     5.017826   23.359381    3.443262
C    32.070299   23.359242    3.441278
C     9.287980   23.359575    3.407961
C     0.036355   24.592357    3.434092
C    11.423651   24.593256    3.398723
C    15.695540   24.593168    3.353514
C    19.968036   24.592815    3.347156
C    24.240191   24.592988    3.368977
C     4.306373   24.592491    3.440431
C     8.576721   24.592769    3.427384
C    12.847774   24.593025    3.381416
C    17.119932   24.592835    3.348096
C    21.392308   24.592779    3.350447
C    25.663914   24.592823    3.383064
C    28.511019   24.592670    3.413409
C    29.934828   24.592415    3.423863
C    32.781748   24.592559    3.433129
C     2.882667   24.592469    3.438789
C     7.152841   24.592752    3.436005
C     9.288274   25.826636    3.437759
C    13.559492   25.826889    3.404928
C    17.831876   25.826399    3.382886
C    22.104312   25.826269    3.382026
C    32.070217   25.825943    3.422232
C     2.171364   25.825836    3.427503
C     6.441739   25.826228    3.442251
C    10.712290   25.826617    3.429192
C    14.983896   25.826373    3.394008
C    19.256220   25.826110    3.381246
C    23.528226   25.826213    3.386999
C    26.375228   25.826375    3.403163
C    27.799080   25.826052    3.411838
C    30.646339   25.826109    3.421833
C     0.747738   25.825891    3.423936
C     5.017856   25.826199    3.439422
C     7.153357   27.059842    3.449517
C    11.423980   27.060390    3.447390
C    15.695600   27.060022    3.425354
C    19.968147   27.059655    3.414173
C    29.934697   27.059417    3.417550
C     0.036464   27.059289    3.411575
C     4.306573   27.059665    3.432549
C     8.577202   27.059900    3.452660
C    12.847986   27.060057    3.440364
C    17.120074   27.059556    3.420616
C    21.392359   27.059353    3.412502
C    25.663514   27.059500    3.415715
C    24.239722   27.059610    3.413840
C    28.510695   27.059620    3.419260
C    32.781880   27.059461    3.412285
C     2.882816   27.059472    3.423013
C     5.018348   28.292917    3.436047
C     9.289063   28.293043    3.464990
C    13.559902   28.293245    3.462455
C    17.832012   28.292813    3.449685
C    27.799040   28.292581    3.424975
C    32.070401   28.292505    3.405111
C     2.171600   28.292508    3.410098
C     6.442159   28.292826    3.448670
C    10.712763   28.293105    3.466828
C    23.528077   28.292324    3.436290
C    14.983852   28.292709    3.458169
C    19.256256   28.292471    3.446008
C    22.104209   28.292556    3.439628
C    26.375173   28.292674    3.430091
C    30.646550   28.292680    3.411845
C     0.747979   28.292566    3.403336
C     7.154041   29.525592    3.456514
C    11.424787   29.525814    3.479888
C    15.696012   29.525486    3.478499
C    25.663539   29.525096    3.443177
C    29.934855   29.525273    3.412240
C     0.036546   29.525150    3.393390
C     4.306931   29.525386    3.424363
C    21.392214   29.525134    3.462481
C     8.577816   29.525505    3.467905
C    12.848444   29.525563    3.480997
C    17.120048   29.525161    3.475061
C    19.968328   29.525431    3.467376
C    24.239823   29.525170    3.451273
C    28.510981   29.525432    3.423909
C    32.782105   29.525364    3.395400
C     2.883261   29.525329    3.409315
C     5.018820   30.757959    3.428615
C     9.289617   30.758197    3.474768
C    13.560590   30.758088    3.491550
C    23.528064   30.757553    3.464749
C    27.799223   30.757732    3.429212
C    19.256409   30.757832    3.484080
C    32.070369   30.757728    3.391799
C     2.171696   30.757623    3.396370
C     6.442594   30.757926    3.446267
C    10.713308   30.758101    3.483131
C    14.984378   30.757729    3.492157
C    17.832328   30.757952    3.488333
C    22.104238   30.757836    3.473385
C    26.375400   30.757832    3.443493
C    30.646667   30.757896    3.402169
C     0.748092   30.757769    3.388367
C    32.781842   31.990487    3.382625
C     2.883387   31.990332    3.396676
C     7.154375   31.990695    3.449517
C    21.392296   31.990560    3.482344
C    11.425182   31.990914    3.486274
C    17.120547   31.990560    3.496018
C    25.663627   31.990384    3.449173
C    29.934697   31.990335    3.402388
C     0.036355   31.990180    3.380492
C     4.307149   31.990356    3.412481
C     8.578070   31.990640    3.464648
C    12.848948   31.990633    3.492005
C    15.696521   31.990562    3.497131
C    19.968401   31.990741    3.489163
C    24.239751   31.990556    3.463115
C    28.510846   31.990588    3.418003
C    30.646179   33.223405    3.389098
C     0.747955   33.223191    3.376564
C    19.256406   33.223733    3.491112
C     5.018979   33.223453    3.413254
C     9.289726   33.223713    3.463167
C    23.527911   33.223590    3.465632
C    27.799040   33.223361    3.418579
C    32.070091   33.223221    3.379162
C     2.171825   33.223135    3.383663
C     6.442842   33.223380    3.430843
C    10.713474   33.223647    3.474587
C    13.560990   33.223648    3.490144
C    17.832484   33.223828    3.494766
C    22.104029   33.223808    3.477356
C    14.984893   33.223483    3.493754
C    26.375115   33.223561    3.436105
C    17.120731   34.456920    3.488740
C    28.510441   34.456578    3.401066
C    32.781551   34.456429    3.370374
C     2.883573   34.456385    3.381805
C     7.154568   34.456703    3.427094
C    21.392073   34.456955    3.475049
C    25.663345   34.456682    3.434261
C    29.934418   34.456422    3.386691
C     0.036274   34.456245    3.368859
C     4.307479   34.456451    3.394402
C     8.578305   34.456604    3.442405
C    11.425383   34.456844    3.468122
C    12.849285   34.456614    3.476554
C    15.696813   34.456870    3.487717
C    19.968087   34.457083    3.483244
C    24.239382   34.456986    3.451000
C    26.374705   35.689785    3.413815
C    30.645994   35.689559    3.372645
C     0.748035   35.689416    3.363980
C     5.019441   35.689629    3.389866
C    14.985135   35.689783    3.474034
C    19.256118   35.689970    3.476407
C    23.527435   35.689975    3.446540
C    27.798622   35.689546    3.397072
C    32.069919   35.689452    3.365312
C     2.172003   35.689380    3.368618
C     6.443232   35.689561    3.403662
C     9.290078   35.689795    3.433707
C    10.713863   35.689715    3.446456
C    13.561272   35.689779    3.467657
C    17.832345   35.690054    3.479531
C    22.103618   35.690067    3.460421
C    24.239039   36.922736    3.427012
C    28.510202   36.922371    3.378932
C    32.781606   36.922406    3.356867
C     2.883918   36.922367    3.363837
C    12.849747   36.922560    3.448033
C    17.120682   36.922750    3.468614
C    21.391595   36.922690    3.455173
C    25.662892   36.922549    3.409457
C    29.934185   36.922356    3.367677
C     0.036363   36.922308    3.355773
C     4.307888   36.922379    3.371613
C     8.578847   36.922523    3.408713
C     7.155093   36.922529    3.395363
C    11.425981   36.922641    3.436601
C    15.697039   36.922764    3.465486
C    19.967869   36.922763    3.464549
C    22.103372   38.155226    3.440770
C    26.374478   38.155120    3.390251
C    30.645932   38.155167    3.355731
C     0.748205   38.155190    3.349778
C    10.714518   38.155247    3.414105
C    14.985436   38.155284    3.451627
C    19.256052   38.155182    3.459033
C    23.527160   38.155301    3.424709
C    27.798383   38.155013    3.374937
C     6.443672   38.155087    3.374180
C    32.069907   38.155191    3.350675
C     2.172255   38.155125    3.352011
C     5.019840   38.155148    3.364868
C     9.290767   38.155292    3.400007
C    13.561829   38.155284    3.441794
C    17.832461   38.155327    3.461562
C    24.238841   39.387864    3.409937
C    28.510059   39.387711    3.361371
C    32.781629   39.388095    3.343378
C     8.579152   39.387896    3.380328
C    12.850149   39.387895    3.426712
C    17.120854   39.387889    3.456297
C    21.391504   39.387732    3.442415
C     4.308041   39.387819    3.350716
C    25.662707   39.387769    3.391068
C    29.934014   39.387864    3.351686
C     0.036435   39.388036    3.342092
C     2.884103   39.387941    3.346437
C     7.155403   39.387828    3.368250