 +---------------------------------------------------------------+
 |                                                               |
 |        ####### #     # ####### ####### ####### ######         |
 |        #     # ##    # #          #    #       #     #        |
 |        #     # # #   # #          #    #       #     #        |
 |        #     # #  #  # #####      #    #####   ######         |
 |        #     # #   # # #          #    #       #              |
 |        #     # #    ## #          #    #       #              |
 |        ####### #     # #######    #    ####### #              |
 |                                                               |
 |        Linear-Scaling Ab Initio Total Energy Program          |
 |                                                               |
 |          Release for academic collaborators of ODG            |
 |                                             Version 6.1.59    |
 | Remote: https://github.com/onetep-devel/onetep.git            |
 | Local branch: master                                          |
 | Commit ID: 3df6b8ca88fa1735659d3248d54c94b50edec21b           |
 | Date: Thu Oct 5 13:49:52 2023 +0200                           |
 | Working tree clean                                            |
 |                                                               |
 +---------------------------------------------------------------+
 |                                                               |
 |  Authors:                                                     |
 |  Jacek Dziedzic, Peter D. Haynes, Nicholas D. M. Hine,        |
 |  Arash A. Mostofi, Mike C. Payne and Chris-Kriton Skylaris    |
 |                                                               |
 |  Contributors:                                                |
 |  J. Aarons, L. Andrinopoulos, P. W. Avraam, R. A. Bell,       |
 |  A. Bhandari, G. A. Bramley, R. J. Charlton, S. J. Clark,     |
 |  R. J. Clements, G. C. Constantinescu, F. Corsetti,           |
 |  N. Corsini, O. Dieguez, S. M. M. Dubois, K. K. B. Duff,      |
 |  J. M. Escartin, M. Escobar Azor, A. Greco,                   |
 |  H. Helal, Q. O. Hill, L. P. Lee, J.-H. Li,                   |
 |  E. B. Linscott, G. Moynihan, D. D. O`Regan,                  |
 |  O. K. Okan, M. J. S. Phipps, C. J. Pickard,                  |
 |  J. C. A. Prentice, M. I. J. Probert, L. E. Ratcliff,         |
 |  M. Robinson, A. Ruiz Serrano, M. dos Santos Dias,            |
 |  J. S. Spencer, E. W. Tait, G. Teobaldi, D. Turban,           |
 |  V. Vitale, K. A. Wilkinson, C. Weber, J. C. Womack,          |
 |  N. Yeung and T. J. Zuehlsdorff                               |
 |                                                               |
 |                                   Copyright (c) 2004-2023     |
 |                                                               |
 |  Please cite:                                                 |
 |  "The ONETEP linear-scaling density functional theory program"|
 |   J. Chem. Phys. 152(17) 174111 (2020)                        |
 |                                                               |
 |          in all publications arising from your use of ONETEP. |
 |                                                               |
 +---------------------------------------------------------------+
 |                                                               |
 |   ONETEP is based on developments described in the following  |
 |   publications:                                               |
 |                                                               |
 |  "Nonorthogonal generalized Wannier function pseudopotential  |
 |   plane-wave method".                                         |
 |   C.-K. Skylaris, A. A. Mostofi, P. D. Haynes, O. Dieguez,    |
 |   M. C. Payne.                                                |
 |   Phys. Rev. B 66 035119 (2002).                              |
 |                                                               |
 |  "Preconditioned iterative minimization for linear-scaling    |
 |   electronic structure calculations".                         |
 |   A. A. Mostofi, P. D. Haynes, C.-K. Skylaris, M. C. Payne.   |
 |   J. Chem. Phys. 119(17), pp.8842-8848 (2003).                |
 |                                                               |
 |  "Total-energy calculations on a real space grid with         |
 |   localized functions and a plane-wave basis".                |
 |   A. A. Mostofi, C.-K. Skylaris, P. D. Haynes, M. C. Payne.   |
 |   Comput. Phys. Commun. 147, pp.788-802 (2002).               |
 |                                                               |
 |  "Accurate kinetic energy evaluation in electronic structure  |
 |   calculations with localized functions on real space grids"  |
 |   C.-K. Skylaris, A. A. Mostofi, P. D. Haynes, C. J. Pickard, |
 |   M. C. Payne.                                                |
 |   Comput. Phys. Commun. 140, pp.315-322 (2001).               |
 |                                                               |
 |  "Accurate ionic forces and geometry optimization in linear-  |
 |   scaling density-functional theory with local orbitals"      |
 |   N. D. M. Hine, M. Robinson, P. D. Haynes, C.-K. Skylaris,   |
 |   M. C. Payne, and A. A. Mostofi.                             |
 |   Phys. Rev. B 83 195102 (2011).                              |
 |                                                               |
 +---------------------------------------------------------------+

Job started: 31-10-2023 23:40 (+0000)
 
Reading parameters from file "graphite.dat" ...... done

If your calculation crashes here, before "Checking processes and threads..."
is displayed, then your stack size is insufficient.
If so, use "ulimit -s unlimited" at runtime.
You can disable this check with "check_stack_size F".

Checking processes and threads...
   Determining the default number of threads...
      No default threads set at compilation time: defaulting to 1.
      OpenMP library call suggests 8 threads.
      Hybrid MPI-OpenMP compilation detected.
      Number of MPI processes > 1.
      OMP_NUM_THREADS environment variable present and
      its value matches the one obtained from the OpenMP library call.
      Using this value as default.
      Default threads: 8
      Default applies to threads_max and threads_num_fftboxes.
      Settings in the input file override this default.
   ... done

   Running with 128 MPI processes.
   There are 16 MPI processes running on the same node as the root process.
   Each MPI process is using: 
               1 threads for simulation cell FFTs.
               1 threads for parallel FFT box operations.
               8 threads for loops over batched FFT box operations.
               8 threads in other parallel regions.
   MPI Interface: S1 (use mpi_f08) (-DMPI -DUSE_MPI_F08).
   MPI_ASYNC_PROTECTS_NONBLOCKING: Yes. MPI_SUBARRAYS_SUPPORTED: Yes.
   GPU Interface: None.
... done

Basic input checks...
Resetting ngwf_cg_rotate to TRUE for EDFT calculations
... done

Reading geometry and species blocks from file "graphite.dat" ...
  Reading POSITIONS geometry from str.xyz

  <species_atomic_set> block not found: NGWF initialisation set to SOLVE
IS: Dielectric excluded regions:
    - NONE.
IS: Assigning soft sphere radii for soft sphere solvation...
IS: No soft sphere radii specified. Default Alvarez radii used for all atoms.

----------- SOFT SPHERE RADII -----------
Li  5.333
C   4.442
-----------------------------------------

    
  Number of PPD points along a3 set to 1.  This is 
  the default value, it may have been provided also in the input file.
... done


--------------------------------------------------------------------------------
---------------------------------- INPUT FILE ----------------------------------
--------------------------------------------------------------------------------

task geometryoptimization                                                       
geom_method LBFGS                                                               
geom_continuation T                                                             
write_xyz T                                                                     
edft_grand_canonical T                                                          
edft_reference_potential  -4.42 eV                                              
edft_electrode_potential 0.10 V                                                 
edft_nelec_thres 0.000001                                                       
is_dielectric_function soft_sphere                                              
is_implicit_solvent T                                                           
is_smeared_ion_rep T                                                            
is_include_apolar T                                                             
is_solvation_properties F                                                       
is_pbe                    full                                                  
is_pbe_temperature        298.15                                                
is_pbe_bc_debye_screening T                                                     
is_pbe_neutralisation_scheme counterions_auto                                   
is_pbe_energy_tolerance 1E+50                                                   
is_bc_coarseness 5                                                              
is_bc_threshold 1E-9                                                            
is_bulk_permittivity 90.7                                                       
is_solvent_surf_tension 0.0506 N/m                                              
%block sol_ions                                                                 
Li  +1 1.0                                                                      
PF6 -1 1.0                                                                      
%endblock sol_ions                                                              
is_steric_pot_type M                                                            
is_hc_steric_dens_isovalue  0.001                                               
is_hc_steric_smearing         0.4 bohr                                          
is_steric_write T                                                               
%block species_solvent_radius                                                   
Li 3.0                                                                          
C 3.0                                                                           
%endblock species_solvent_radius                                                
multigrid_bc:   P P P                                                           
ion_ion_bc:     P P P                                                           
pspot_bc:       P P P                                                           
smeared_ion_bc: P P P                                                           
mg_max_iters_vcycle 500                                                         
mg_vcyc_smoother_iter_pre 4                                                     
mg_vcyc_smoother_iter_post 4                                                    
mg_max_res_ratio 1000.0                                                         
mg_max_iters_newton 300                                                         
edft                    : T                                                     
edft_smearing_width     : 0.1 eV                                                
spin                    : 0.0                                                   
edft_spin_fix           : 2                                                     
spin_polarized          : T                                                     
cutoff_energy :  1000 eV                                                        
kernel_cutoff : 1000 bohr                                                       
xc_functional PBE                                                               
dispersion 4                                                                    
output_detail VERBOSE                                                           
do_properties T                                                                 
cube_format F                                                                   
dx_format F                                                                     
write_denskern T                                                                
write_tightbox_ngwfs T                                                          
write_hamiltonian T                                                             
%block species                                                                  
Li Li 3  5  8.0                                                                 
C  C  6  4  8.0                                                                 
%endblock species                                                               
%block species_pot                                                              
Li '/work/e89/e89/arihant/pseudo/Li.usp'                                        
C '/work/e89/e89/arihant/pseudo/C.usp'                                          
%endblock species_pot                                                           
%BLOCK LATTICE_CART                                                             
ang                                                                             
34.16920551     0.00000000     0.00000000                                       
0.00000000    19.72760000     0.00000000                                        
0.00000000     0.00000000   100.02798000                                        
%ENDBLOCK LATTICE_CART                                                          
positions_xyz_file str.xyz                                                      
     Hash =   000008393249018618214921

--------------------------------------------------------------------------------
-------------------------------- END INPUT FILE --------------------------------
--------------------------------------------------------------------------------


 
 ESDF WARNING(1): "ispbeenergytolerance" (esdf_physical) has no units. Assume "hartree".
<<<<<<<<<<<<<<<<<<<<<<<<<<<<<<<<< Full system >>>>>>>>>>>>>>>>>>>>>>>>>>>>>>>>>>
<<<<<<<<<<<<<<<<<<<<<<<<< Pseudopotential information >>>>>>>>>>>>>>>>>>>>>>>>>>
File: /work/e89/e89/arihant/pseudo/Li.usp [ 2001 points up to Gmax=  52.9 (1/bohr)]
  Atomic number:  3;  ionic charge:  3.000000
    Shell 1: l = 0; rc = 1.19 bohr
    Shell 2: l = 0; rc = 1.25 bohr
File: /work/e89/e89/arihant/pseudo/C.usp [ 2001 points up to Gmax=  52.9 (1/bohr)]
  Atomic number:  6;  ionic charge:  4.000000
    Shell 1: l = 0; rc = 1.19 bohr
  Core charge supplied for Nonlinear Core Corrections
<<<<<<<<<<<<<<<<<<<<<<<<<<<<<<<<<<<<<<<<>>>>>>>>>>>>>>>>>>>>>>>>>>>>>>>>>>>>>>>>

-------------------------- Atom counting information ---------------------------
Symbol    Natoms    Nngwfs    Nprojs
  Li        64       320       128
  C        512      2048       512
.......   ......    ......    ......
Totals:    576      2368       640
--------------------------------------------------------------------------------

=============================== PSINC grid sizes ===============================
                      Simulation cell:  143 x  91 x 416
                              FFT-box:  117 x  91 x 117
                                  PPD:   11 x   7 x   1
Grid space d1=  0.451541543008a0 (KE cutoff=  37.25706Eh =1013.81618eV)
Grid space d2=  0.409667706512a0 (KE cutoff=  45.26271Eh =1231.66098eV)
Grid space d3=  0.454388192297a0 (KE cutoff=  36.79171Eh =1001.15326eV)
================================================================================
  
WARNING in cell_grid_distribute:
Average of less than one 23-slab per proc, so workload cannot be
equally balanced between procs.

********************* Fourier parallelisation information **********************
       Coarse grid (whole simulation cell) dimensions:    143    91   416
          Real-space ('12') slabs/proc (min max mean):      3     4     3
         Recip-space ('23') slabs/proc (min max mean):      0     1     0
********************************************************************************

********************* Fourier parallelisation information **********************
       Double grid (whole simulation cell) dimensions:    286   182   832
          Real-space ('12') slabs/proc (min max mean):      6     7     6
         Recip-space ('23') slabs/proc (min max mean):      1     2     1
********************************************************************************

********************* Fourier parallelisation information **********************
         Fine grid (whole simulation cell) dimensions:    288   184   832
          Real-space ('12') slabs/proc (min max mean):      6     7     6
         Recip-space ('23') slabs/proc (min max mean):      1     2     1
         Grid scale modified to satisfy multigrid solver grid constraints
         Grid scale values after modifification:         2.01  2.02  2.00
********************************************************************************
ONETEP fine grid is 288 x 184 x 832 gridpoints, 64.5704 x 37.2798 x 189.0255 bohr.
FD multigrid is     288 x 184 x 832 gridpoints, 64.5704 x 37.2798 x 189.0255 bohr.


Atom SCF Calculation for Li : Z (AE atom) =   3 : Z (PS atom) =   3
Config String:
Orbitals (num,occ):  3     2.00 1.00 0.00
Orbitals   (num,l):  3        0    0    1
Real-space Grid (nr,dr,rmax): 1343    0.0059612519    8.0000000000
Spherical Bessel Basis (nsws,lmax,cutoff):   37    1  220.4959463253
Confining potential (l,width,scale):  0    3.0000000000  100.0000000000
Confining potential (l,width,scale):  1    3.0000000000  100.0000000000
  1         -3.7050169094   -5.2301177776    2.5388568852   -0.9989538802
  2         -6.0510920273   -4.2679357854    3.2724001845   -1.3422946715
  3         -6.7975021434   -3.8722499620    3.6648237887   -1.5325279919
  4         -7.0147472228   -3.7673066376    3.7864613280   -1.5966989055
  5         -7.0774132854   -3.7446783348    3.8157063634   -1.6161454686
  6         -7.0951992563   -3.7420177453    3.8204515040   -1.6217593843
  7         -7.1001226024   -3.7430426481    3.8200527077   -1.6233132433
  8         -7.1014239576   -3.7441529610    3.8191274553   -1.6237164860
  9         -7.1017352306   -3.7448434699    3.8184905098   -1.6238077213
 10         -7.1017916056   -3.7452114113    3.8181373932   -1.6238209669
 11         -7.1017908912   -3.7453946820    3.8179578223   -1.6238181917
 12         -7.1017822190   -3.7454828903    3.8178702968   -1.6238141227
 13         -7.1017768840   -3.7455162316    3.8178369316   -1.6238119017
 14         -7.1017732849   -3.7455353767    3.8178176959   -1.6238104459
 15         -7.1017709700   -3.7455463461    3.8178066371   -1.6238095253
 16         -7.1017695244   -3.7455526225    3.8178002910   -1.6238089565
 17         -7.1017686390   -3.7455562110    3.8177966534   -1.6238086105
 18         -7.1017681040   -3.7455582619    3.8177945697   -1.6238084022
 19         -7.1017677838   -3.7455594341    3.8177933764   -1.6238082778
 20         -7.1017675934   -3.7455601042    3.8177926929   -1.6238082039
 21         -7.1017674808   -3.7455604874    3.8177923014   -1.6238081602
 22         -7.1017674145   -3.7455607066    3.8177920771   -1.6238081344
Atom SCF converged after  22 iterations to a total energy of     -7.10176741

Atom SCF Calculation for C  : Z (AE atom) =   6 : Z (PS atom) =   4
Config String:
Orbitals (num,occ):  2     2.00 2.00
Orbitals   (num,l):  2        0    1
Real-space Grid (nr,dr,rmax): 1343    0.0059612519    8.0000000000
Spherical Bessel Basis (nsws,lmax,cutoff):   37    1  220.4959463253
Confining potential (l,width,scale):  0    3.0000000000  100.0000000000
Confining potential (l,width,scale):  1    3.0000000000  100.0000000000
  1         -5.8177092822   -1.2555419264    4.5135233515   -1.7471920893
  2         -5.6032261188   -1.3440047989    4.4246587726   -1.7090653419
  3         -5.5936068668   -1.3561735374    4.4140765627   -1.7034094417
  4         -5.5958505747   -1.3587284552    4.4121342699   -1.7022848669
  5         -5.5969687665   -1.3601698222    4.4109982405   -1.7017057890
  6         -5.5975400979   -1.3609792837    4.4103423276   -1.7013975981
  7         -5.5978435204   -1.3614297943    4.4099696476   -1.7012314972
  8         -5.5980096069   -1.3616786122    4.4097605138   -1.7011416075
  9         -5.5981021113   -1.3618152853    4.4096441572   -1.7010929151
 10         -5.5981539939   -1.3618900852    4.4095797860   -1.7010665406
 11         -5.5981831160   -1.3619309228    4.4095443105   -1.7010522599
 12         -5.5981994243   -1.3619531807    4.4095248124   -1.7010445305
 13         -5.5982085235   -1.3619652972    4.4095141175   -1.7010403487
 14         -5.5982135796   -1.3619718867    4.4095082606   -1.7010380870
 15         -5.5982163780   -1.3619754676    4.4095050573   -1.7010368642
 16         -5.5982179208   -1.3619774123    4.4095033073   -1.7010362032
 17         -5.5982187685   -1.3619784678    4.4095023522   -1.7010358460
 18         -5.5982192328   -1.3619790404    4.4095018314   -1.7010356530
 19         -5.5982194864   -1.3619793509    4.4095015476   -1.7010355488
 20         -5.5982196245   -1.3619795192    4.4095013931   -1.7010354925
 21         -5.5982196995   -1.3619796104    4.4095013090   -1.7010354621
Atom SCF converged after  21 iterations to a total energy of     -5.59821970

BC: Task: GEOMETRYOPTIMIZATION
BC: +++++++++++++++ Summary of boundary conditions ++++++++++++++
BC: |       Component       |     Keyword     |   Periodicity   |
BC: |                       |                 |     X  Y  Z [1] |
BC: |-----------------------------------------------------------|
BC: | Ion-ion               | ion_ion_bc [2]  |     P  P  P     |
BC: | Local pseudopotential | pspot_bc [3]    |     P  P  P     |
BC: | Multigrid solver      | multigrid_bc    |     P  P  P     |
BC: | Smeared ions          | smeared_ion_bc  |     P  P  P     |
BC: | Van der Waals         | vdw_bc          |     P  P  P     |
BC: +++++++++++++++++++++++++++++++++++++++++++++++++++++++++++++
BC: P: Periodic, O: Open.
BC: [1] Not strictly along X, Y, Z but rather along lattice vectors A1, A2, A3.
BC: [2] Also affected by: pbc_correction_cutoff, cutoff_coulomb_type,
BC:     is_smeared_ion_rep, is_implicit_solvent, openbc_ion_ion.
BC: [3] Also affected by: is_smeared_ion_rep, is_implicit_solvent, openbc_pspot.

================================================================================
<<<<<<<<<<<<<<<< Resuming previous ONETEP Geometry Optimisation >>>>>>>>>>>>>>>>
================================================================================

 Geometry Optimisation: output file is "graphite.geom"
 
 Reading continuation file "graphite.continuation" ...done
 Geometry Optimisation: read_tightbox_ngwfs parameter over-ridden to TRUE
 Geometry Optimisation: read_hamiltonian parameter over-ridden to T
 
                           -------------------------------
                                     Cell Contents
                           -------------------------------
 
            xxxxxxxxxxxxxxxxxxxxxxxxxxxxxxxxxxxxxxxxxxxxxxxxxxxxxxxxxxxx
            x  Element    Atom      Absolute co-ordinates of atoms     x
            x            Number        x           y           z       x
            x----------------------------------------------------------x
            x    Li        1        0.035894   37.135179   16.436041   x
            x    Li        2        0.036078   27.812346   16.436820   x
            x    Li        3        0.035782   18.487662   16.435690   x
            x    Li        4        0.035749    9.171921   16.433949   x
            x    Li        5        8.133843   32.466091   16.435805   x
            x    Li        6        8.134663   23.153784   16.438086   x
            x    Li        7        8.139552   13.831310   16.428994   x
            x    Li        8        8.136903    4.516558   16.433823   x
            x    Li        9       16.235752    9.177742   16.415352   x
            x    Li       10       16.235946   18.479523   16.425124   x
            x    Li       11       16.236100   27.812259   16.436339   x
            x    Li       12       16.235921   37.138730   16.435885   x
            x    Li       13       24.332080   32.465672   16.432280   x
            x    Li       14       24.331305   23.153905   16.434481   x
            x    Li       15       24.324427   13.832083   16.426719   x
            x    Li       16       24.327482    4.516059   16.431912   x
            x    Li       17       32.408025   37.133856   16.434743   x
            x    Li       18       32.408060   27.812223   16.432536   x
            x    Li       19       32.408773   18.488999   16.434557   x
            x    Li       20       32.408756    9.171889   16.435568   x
            x    Li       21       40.460613   32.463066   16.425913   x
            x    Li       22       40.455787   23.157668   16.431825   x
            x    Li       23       40.451967   13.834295   16.433366   x
            x    Li       24       40.452440    4.512578   16.435208   x
            x    Li       25       48.478569   37.125845   16.422543   x
            x    Li       26       48.478513   27.817699   16.412634   x
            x    Li       27       48.478627   18.492218   16.433172   x
            x    Li       28       48.478647    9.171822   16.433909   x
            x    Li       29       56.517247   32.463796   16.425175   x
            x    Li       30       56.520995   23.157015   16.431191   x
            x    Li       31       56.525913   13.833736   16.431526   x
            x    Li       32       56.525156    4.513137   16.432828   x
            x    C        33       18.932481    9.202141   12.874531   x
            x    C        34       13.513446    9.201996   12.878216   x
            x    C        35       14.871535   11.544599   12.874249   x
            x    C        36       17.574175   11.544731   12.876680   x
            x    C        37       51.212699   27.841928   12.875736   x
            x    C        38       45.797266   27.841864   12.877924   x
            x    C        39       47.154623   30.184674   12.874356   x
            x    C        40       49.855838   30.184386   12.877337   x
            x    C        41       14.870927    6.858237   12.875965   x
            x    C        42       17.574819    6.858291   12.878328   x
            x    C        43       21.590018   13.862935   12.889076   x
            x    C        44       18.917411   13.862919   12.884262   x
            x    C        45       13.528398   13.862963   12.883898   x
            x    C        46       14.871580   16.180809   12.887229   x
            x    C        47       17.574469   16.180785   12.889780   x
            x    C        48       47.153953   25.498003   12.876053   x
            x    C        49       49.856267   25.498525   12.878668   x
            x    C        50       53.868454   32.502944   12.887477   x
            x    C        51       51.196752   32.503036   12.884527   x
            x    C        52       45.813334   32.502863   12.884394   x
            x    C        53       47.154434   34.820599   12.887325   x
            x    C        54       49.855938   34.821122   12.890000   x
            x    C        55       14.872016    2.221965   12.885196   x
            x    C        56       17.573735    2.222240   12.887753   x
            x    C        57       22.945912    2.199509   12.895091   x
            x    C        58        9.499086    2.199043   12.898319   x
            x    C        59       63.295038    2.224690   12.891659   x
            x    C        60        6.797213    2.199517   12.897331   x
            x    C        61       31.017309    2.224130   12.892738   x
            x    C        62        1.425695    2.224191   12.894660   x
            x    C        63       25.647394    2.199837   12.897934   x
            x    C        64       33.717916    2.224275   12.894644   x
            x    C        65       39.086896    2.199544   12.899148   x
            x    C        66       55.223606    2.199640   12.893525   x
            x    C        67       57.924547    2.200506   12.898052   x
            x    C        68       47.155159    2.223498   12.882066   x
            x    C        69       41.787464    2.199270   12.898973   x
            x    C        70       49.855081    2.223389   12.884289   x
            x    C        71       18.917480    4.539762   12.880383   x
            x    C        72       13.528277    4.539549   12.880101   x
            x    C        73       10.855317    4.541095   12.886963   x
            x    C        74       27.004093    4.542577   12.891490   x
            x    C        75        5.440324    4.542333   12.896589   x
            x    C        76       21.590074    4.541463   12.890115   x
            x    C        77       59.280306    4.542608   12.893964   x
            x    C        78        2.767920    4.542344   12.893237   x
            x    C        79       35.059572    4.541954   12.895691   x
            x    C        80       61.952382    4.542447   12.893332   x
            x    C        81       29.675978    4.542325   12.894361   x
            x    C        82       43.142881    4.541484   12.893999   x
            x    C        83       51.195869    4.541217   12.888438   x
            x    C        84       37.731145    4.541979   12.900843   x
            x    C        85       53.867425    4.542039   12.894151   x
            x    C        86       45.814018    4.540897   12.890176   x
            x    C        87       22.947370    6.882926   12.883517   x
            x    C        88       63.294871    6.860225   12.896317   x
            x    C        89        6.797062    6.883680   12.888211   x
            x    C        90       31.016667    6.860671   12.899335   x
            x    C        91       39.087093    6.883221   12.893711   x
            x    C        92       57.924201    6.883569   12.892356   x
            x    C        93        1.426559    6.860809   12.899318   x
            x    C        94        9.497835    6.882736   12.886723   x
            x    C        95       25.647734    6.883959   12.888975   x
            x    C        96       33.718172    6.859907   12.901420   x
            x    C        97       55.224178    6.883789   12.889847   x
            x    C        98       47.154354    6.859082   12.896343   x
            x    C        99       41.786693    6.882969   12.895837   x
            x    C       100       49.855749    6.859689   12.898131   x
            x    C       101       51.211154    9.202233   12.894491   x
            x    C       102       59.265669    9.201994   12.890036   x
            x    C       103        2.782571    9.202606   12.893048   x
            x    C       104       26.989610    9.201865   12.888445   x
            x    C       105       35.074427    9.202371   12.894417   x
            x    C       106       43.126970    9.201310   12.894501   x
            x    C       107       53.882709    9.201767   12.892377   x
            x    C       108       61.938118    9.202791   12.894643   x
            x    C       109        5.454717    9.201778   12.889698   x
            x    C       110       21.605688    9.201423   12.881436   x
            x    C       111       29.661157    9.202483   12.897844   x
            x    C       112       37.746230    9.201535   12.893931   x
            x    C       113       45.798341    9.201936   12.898457   x
            x    C       114       10.840040    9.201182   12.881382   x
            x    C       115       47.154786   11.543712   12.893596   x
            x    C       116       55.223492   11.520141   12.894406   x
            x    C       117       63.295660   11.544179   12.889614   x
            x    C       118       31.017249   11.543161   12.891992   x
            x    C       119       39.086340   11.520146   12.897052   x
            x    C       120       49.854968   11.543561   12.895443   x
            x    C       121       57.924851   11.520788   12.896030   x
            x    C       122        1.426074   11.543333   12.892116   x
            x    C       123       33.717474   11.543763   12.894652   x
            x    C       124       41.787137   11.519938   12.899909   x
            x    C       125        6.796761   11.519829   12.890577   x
            x    C       126       22.946612   11.520386   12.887045   x
            x    C       127       25.648091   11.519938   12.891013   x
            x    C       128        9.498631   11.520123   12.890343   x
            x    C       129       45.813655   13.861387   12.896692   x
            x    C       130       43.142526   13.862542   12.895374   x
            x    C       131       51.195820   13.861610   12.895049   x
            x    C       132       59.280575   13.862847   12.891872   x
            x    C       133       35.059258   13.861502   12.893833   x
            x    C       134       53.867344   13.862897   12.895712   x
            x    C       135       61.952767   13.861837   12.892092   x
            x    C       136       29.675817   13.861255   12.890940   x
            x    C       137       37.730798   13.862491   12.898074   x
            x    C       138        2.768290   13.861294   12.889996   x
            x    C       139       27.003854   13.862451   12.886040   x
            x    C       140        5.440729   13.862285   12.891070   x
            x    C       141       10.855536   13.862886   12.885634   x
            x    C       142       47.154276   16.179049   12.899635   x
            x    C       143       55.224202   16.204127   12.889877   x
            x    C       144       41.786418   16.203640   12.895366   x
            x    C       145       49.855513   16.179620   12.901773   x
            x    C       146       39.087137   16.203655   12.893070   x
            x    C       147       63.294888   16.179911   12.896764   x
            x    C       148       31.016441   16.180010   12.896995   x
            x    C       149       57.924033   16.203735   12.892271   x
            x    C       150       33.718177   16.179702   12.899834   x
            x    C       151        6.798361   16.203808   12.885545   x
            x    C       152        1.426779   16.180043   12.898510   x
            x    C       153       25.646591   16.204080   12.885891   x
            x    C       154       22.946264   16.204192   12.883200   x
            x    C       155        9.498990   16.204137   12.886564   x
            x    C       156       51.211361   18.521242   12.894454   x
            x    C       157       45.798012   18.521037   12.897541   x
            x    C       158       43.126805   18.521183   12.894494   x
            x    C       159       53.882730   18.521350   12.893263   x
            x    C       160       35.074648   18.522551   12.894066   x
            x    C       161       59.265581   18.521801   12.892543   x
            x    C       162       37.746284   18.521605   12.895433   x
            x    C       163       61.937920   18.522802   12.896852   x
            x    C       164       29.660442   18.522627   12.897049   x
            x    C       165        2.783314   18.522700   12.893967   x
            x    C       166       26.988450   18.521924   12.889654   x
            x    C       167        5.455983   18.521792   12.891404   x
            x    C       168       10.842105   18.521790   12.886153   x
            x    C       169       18.931259   18.522920   12.883382   x
            x    C       170       21.603741   18.522069   12.885704   x
            x    C       171       13.514740   18.522773   12.887465   x
            x    C       172       47.154864   20.861825   12.885399   x
            x    C       173       49.855077   20.861712   12.887919   x
            x    C       174       55.224248   20.838924   12.894719   x
            x    C       175       41.786442   20.839072   12.899082   x
            x    C       176       31.017177   20.863887   12.892181   x
            x    C       177       39.085854   20.839968   12.898400   x
            x    C       178       63.295557   20.864539   12.891823   x
            x    C       179       33.717608   20.864381   12.894108   x
            x    C       180       57.925345   20.840340   12.898302   x
            x    C       181        1.426119   20.863871   12.894873   x
            x    C       182        6.798329   20.839665   12.898015   x
            x    C       183       22.945080   20.840127   12.893927   x
            x    C       184       25.646653   20.839838   12.897617   x
            x    C       185       14.872390   20.863266   12.881629   x
            x    C       186        9.500225   20.839714   12.898527   x
            x    C       187       17.573549   20.863415   12.883477   x
            x    C       188       51.196554   23.179599   12.880500   x
            x    C       189       45.813294   23.179390   12.881043   x
            x    C       190       43.141845   23.181152   12.887221   x
            x    C       191       59.281221   23.182520   12.893280   x
            x    C       192       37.730196   23.182401   12.897754   x
            x    C       193       53.868370   23.181348   12.889507   x
            x    C       194       27.003394   23.182477   12.893042   x
            x    C       195       35.058957   23.182212   12.893479   x
            x    C       196        2.768427   23.181965   12.894758   x
            x    C       197       29.675694   23.182104   12.893334   x
            x    C       198       61.953033   23.182275   12.893840   x
            x    C       199       10.856609   23.181590   12.894581   x
            x    C       200       18.916507   23.180952   12.887754   x
            x    C       201        5.441165   23.182075   12.899787   x
            x    C       202       21.588932   23.181855   12.895847   x
            x    C       203       13.529403   23.180895   12.889187   x
            x    C       204       55.225881   25.523169   12.883910   x
            x    C       205       31.016870   25.500540   12.896699   x
            x    C       206       39.085673   25.523413   12.889703   x
            x    C       207       63.294858   25.500214   12.898283   x
            x    C       208        6.798336   25.523512   12.893501   x
            x    C       209       25.646365   25.523926   12.892444   x
            x    C       210       33.718258   25.500250   12.898590   x
            x    C       211       41.785227   25.522861   12.887548   x
            x    C       212       57.925781   25.523429   12.890441   x
            x    C       213        1.426396   25.500405   12.901498   x
            x    C       214       22.945604   25.523196   12.891065   x
            x    C       215       14.871625   25.499320   12.895836   x
            x    C       216        9.499459   25.523033   12.896102   x
            x    C       217       17.574278   25.499271   12.897264   x
            x    C       218       18.930933   27.842332   12.893688   x
            x    C       219       26.988852   27.841849   12.890536   x
            x    C       220       35.074167   27.842484   12.891493   x
            x    C       221       59.266593   27.841824   12.888893   x
            x    C       222        2.782538   27.842499   12.895441   x
            x    C       223       10.841976   27.841229   12.893858   x
            x    C       224       21.603614   27.841600   12.892494   x
            x    C       225       29.661014   27.842577   12.895911   x
            x    C       226       37.745371   27.841496   12.890639   x
            x    C       227       53.884717   27.841168   12.882472   x
            x    C       228       61.938308   27.842593   12.896306   x
            x    C       229        5.455264   27.841538   12.893868   x
            x    C       230       13.514828   27.842026   12.898281   x
            x    C       231       43.125525   27.841049   12.882534   x
            x    C       232       14.872106   30.183698   12.892984   x
            x    C       233       22.945025   30.160396   12.894625   x
            x    C       234       31.017578   30.183546   12.890191   x
            x    C       235       63.295222   30.183708   12.891238   x
            x    C       236        6.797673   30.159731   12.896541   x
            x    C       237       17.573577   30.184093   12.894500   x
            x    C       238       25.647033   30.160090   12.895311   x
            x    C       239       33.717769   30.183684   12.891666   x
            x    C       240        1.425405   30.183456   12.894980   x
            x    C       241        9.500031   30.159820   12.899496   x
            x    C       242       39.085354   30.159633   12.891173   x
            x    C       243       55.225077   30.159715   12.886385   x
            x    C       244       57.926157   30.160389   12.891648   x
            x    C       245       41.786021   30.159683   12.890350   x
            x    C       246       13.529018   32.501576   12.895225   x
            x    C       247       10.856306   32.502377   12.895117   x
            x    C       248       18.916556   32.501947   12.893972   x
            x    C       249       27.003525   32.502812   12.890357   x
            x    C       250        2.767967   32.501538   12.893258   x
            x    C       251       21.589001   32.502875   12.896618   x
            x    C       252       29.675854   32.501677   12.891950   x
            x    C       253       61.952787   32.501406   12.890548   x
            x    C       254        5.440816   32.502439   12.896973   x
            x    C       255       35.059299   32.501305   12.890545   x
            x    C       256       59.281024   32.502404   12.887175   x
            x    C       257       37.730577   32.501913   12.891986   x
            x    C       258       43.141944   32.502526   12.885107   x
            x    C       259       14.871462   34.819432   12.898839   x
            x    C       260       22.945804   34.843557   12.890092   x
            x    C       261        9.499208   34.843162   12.894632   x
            x    C       262       17.574011   34.819510   12.900677   x
            x    C       263        6.798568   34.843538   12.892065   x
            x    C       264       31.016714   34.820222   12.897393   x
            x    C       265       63.294518   34.819604   12.895994   x
            x    C       266       25.646117   34.844044   12.891544   x
            x    C       267        1.426331   34.820165   12.899990   x
            x    C       268       39.086911   34.843042   12.886377   x
            x    C       269       33.718508   34.819556   12.898519   x
            x    C       270       57.924568   34.843491   12.886234   x
            x    C       271       55.224837   34.844380   12.882581   x
            x    C       272       41.786206   34.843685   12.886803   x
            x    C       273       18.931318   37.161208   12.893476   x
            x    C       274       13.514301   37.161044   12.897330   x
            x    C       275       10.841557   37.160753   12.892936   x
            x    C       276       21.603890   37.161179   12.892524   x
            x    C       277        2.782846   37.162336   12.895371   x
            x    C       278       26.988576   37.161571   12.892620   x
            x    C       279        5.455532   37.161129   12.894505   x
            x    C       280       29.660591   37.162521   12.898257   x
            x    C       281       61.937530   37.162661   12.895649   x
            x    C       282       35.075059   37.162316   12.892955   x
            x    C       283       59.265273   37.161798   12.889390   x
            x    C       284       37.746735   37.161113   12.892227   x
            x    C       285       43.127260   37.161215   12.886914   x
            x    C       286       51.211516   37.162753   12.884025   x
            x    C       287       53.882852   37.161707   12.886148   x
            x    C       288       45.798424   37.162496   12.887218   x
            x    Li      289        0.049136   37.111454    9.368404   x
            x    Li      290        0.049252   27.790533    9.368930   x
            x    Li      291        0.049009   18.467679    9.368016   x
            x    Li      292        0.049036    9.149009    9.366634   x
            x    Li      293        8.136924   32.448468    9.368628   x
            x    Li      294        8.137264   23.130695    9.369896   x
            x    Li      295        8.137090   13.811705    9.359806   x
            x    Li      296        8.137593    4.488368    9.364702   x
            x    Li      297       16.226636    9.147171    9.348734   x
            x    Li      298       16.226527   18.467682    9.356426   x
            x    Li      299       16.226225   27.790467    9.368208   x
            x    Li      300       16.226521   37.112480    9.366299   x
            x    Li      301       24.312912   32.448541    9.365516   x
            x    Li      302       24.312881   23.130297    9.366678   x
            x    Li      303       24.312775   13.811914    9.357934   x
            x    Li      304       24.312134    4.488325    9.363033   x
            x    Li      305       32.387667   37.112019    9.368085   x
            x    Li      306       32.387427   27.790330    9.366151   x
            x    Li      307       32.387316   18.467238    9.368092   x
            x    Li      308       32.387671    9.148684    9.369130   x
            x    Li      309       40.441069   32.448013    9.359635   x
            x    Li      310       40.441318   23.131120    9.364838   x
            x    Li      311       40.440616   13.811804    9.368377   x
            x    Li      312       40.440778    4.487860    9.369507   x
            x    Li      313       48.483273   37.112383    9.356188   x
            x    Li      314       48.483309   27.788914    9.348564   x
            x    Li      315       48.483352   18.468251    9.366132   x
            x    Li      316       48.482812    9.148650    9.368019   x
            x    Li      317       56.540358   32.448287    9.357856   x
            x    Li      318       56.539776   23.131143    9.363407   x
            x    Li      319       56.540624   13.812147    9.365307   x
            x    Li      320       56.540483    4.487802    9.365911   x
            x    C       321       18.918529    9.195154    5.849349   x
            x    C       322       13.523376    9.195015    5.852315   x
            x    C       323       14.869513   11.532622    5.856603   x
            x    C       324       17.572389   11.532765    5.858298   x
            x    C       325       51.202628   27.834850    5.850596   x
            x    C       326       45.808426   27.834822    5.847600   x
            x    C       327       47.154434   30.172442    5.854536   x
            x    C       328       49.856953   30.172355    5.859509   x
            x    C       329       14.869285    6.857013    5.842279   x
            x    C       330       17.572670    6.856988    5.843883   x
            x    C       331       21.598662   13.856295    5.857147   x
            x    C       332       18.911145   13.856868    5.874479   x
            x    C       333       13.530801   13.856808    5.875514   x
            x    C       334       14.869882   16.180193    5.848469   x
            x    C       335       17.572042   16.180174    5.850445   x
            x    C       336       47.154064   25.496750    5.840065   x
            x    C       337       49.857078   25.496912    5.844949   x
            x    C       338       53.882345   32.496173    5.850606   x
            x    C       339       51.195101   32.496644    5.873140   x
            x    C       340       45.816168   32.496582    5.872889   x
            x    C       341       47.154817   34.819895    5.847386   x
            x    C       342       49.856661   34.820126    5.852671   x
            x    C       343       14.870108    2.209294    5.855816   x
            x    C       344       17.571576    2.209407    5.857723   x
            x    C       345       22.942757    2.198006    5.852722   x
            x    C       346        9.498864    2.197714    5.855246   x
            x    C       347       63.296981    2.212406    5.861592   x
            x    C       348        6.797649    2.198471    5.853992   x
            x    C       349       31.013741    2.212256    5.864398   x
            x    C       350        1.427709    2.212259    5.867438   x
            x    C       351       25.643916    2.198712    5.854280   x
            x    C       352       33.714862    2.212109    5.863802   x
            x    C       353       39.084835    2.198976    5.855455   x
            x    C       354       55.225826    2.199064    5.848213   x
            x    C       355       57.926701    2.199427    5.857023   x
            x    C       356       47.155081    2.211614    5.851495   x
            x    C       357       41.785684    2.198747    5.854519   x
            x    C       358       49.856021    2.211595    5.856064   x
            x    C       359       18.911047    4.532787    5.867819   x
            x    C       360       13.530809    4.532731    5.868957   x
            x    C       361       10.843105    4.534011    5.853757   x
            x    C       362       26.989060    4.535528    5.854581   x
            x    C       363        5.452497    4.535260    5.859458   x
            x    C       364       21.598646    4.534221    5.856720   x
            x    C       365       59.271212    4.535915    5.862345   x
            x    C       366        2.765665    4.535930    5.878329   x
            x    C       367       35.053010    4.535678    5.876507   x
            x    C       368       61.958484    4.536066    5.878421   x
            x    C       369       29.675897    4.536032    5.878531   x
            x    C       370       43.129968    4.534967    5.856706   x
            x    C       371       51.194082    4.534788    5.870517   x
            x    C       372       37.740113    4.535424    5.862999   x
            x    C       373       53.880981    4.535277    5.854037   x
            x    C       374       45.816821    4.534649    5.871834   x
            x    C       375       22.944090    6.870571    5.857340   x
            x    C       376       63.297007    6.859485    5.853156   x
            x    C       377        6.797051    6.871215    5.859175   x
            x    C       378       31.013496    6.859679    5.857331   x
            x    C       379       39.084768    6.871351    5.864234   x
            x    C       380       57.926546    6.871771    5.866198   x
            x    C       381        1.428011    6.859668    5.859007   x
            x    C       382        9.497663    6.870368    5.860010   x
            x    C       383       25.644599    6.871528    5.859302   x
            x    C       384       33.714809    6.859142    5.856996   x
            x    C       385       55.225924    6.871549    5.859848   x
            x    C       386       47.154627    6.858280    5.851964   x
            x    C       387       41.785274    6.871059    5.865855   x
            x    C       388       49.856294    6.858466    5.856539   x
            x    C       389       51.200799    9.195477    5.861040   x
            x    C       390       59.264693    9.195621    5.875332   x
            x    C       391        2.772588    9.195716    5.860998   x
            x    C       392       26.982341    9.195275    5.872136   x
            x    C       393       35.059570    9.195626    5.856572   x
            x    C       394       43.122761    9.194986    5.875961   x
            x    C       395       53.888039    9.195376    5.876803   x
            x    C       396       61.951969    9.196012    5.856911   x
            x    C       397        5.459271    9.195129    5.875924   x
            x    C       398       21.606443    9.194857    5.872841   x
            x    C       399       29.668930    9.195726    5.862961   x
            x    C       400       37.746750    9.195224    5.877069   x
            x    C       401       45.809781    9.195303    5.859017   x
            x    C       402       10.835474    9.194620    5.871962   x
            x    C       403       47.154766   11.531840    5.862626   x
            x    C       404       55.225610   11.519308    5.851655   x
            x    C       405       63.297498   11.531904    5.859969   x
            x    C       406       31.013610   11.531312    5.863859   x
            x    C       407       39.084348   11.519072    5.855207   x
            x    C       408       49.855888   11.531773    5.867180   x
            x    C       409       57.926913   11.519522    5.857247   x
            x    C       410        1.427951   11.531381    5.865384   x
            x    C       411       33.714345   11.531556    5.864045   x
            x    C       412       41.785451   11.518996    5.857505   x
            x    C       413        6.797031   11.518759    5.848937   x
            x    C       414       22.943673   11.519353    5.849220   x
            x    C       415       25.644766   11.518925    5.848804   x
            x    C       416        9.498203   11.519075    5.852215   x
            x    C       417       45.816560   13.855163    5.877957   x
            x    C       418       43.129730   13.855582    5.858448   x
            x    C       419       51.193978   13.855241    5.876700   x
            x    C       420       59.271366   13.855917    5.860712   x
            x    C       421       35.052678   13.854993    5.875387   x
            x    C       422       53.880851   13.855894    5.856104   x
            x    C       423       61.958754   13.855364    5.877182   x
            x    C       424       29.675633   13.854897    5.875521   x
            x    C       425       37.739795   13.855523    5.861305   x
            x    C       426        2.766074   13.854875    5.875338   x
            x    C       427       26.988832   13.855685    5.849449   x
            x    C       428        5.452931   13.855468    5.854678   x
            x    C       429       10.843268   13.856127    5.854292   x
            x    C       430       47.154606   16.178090    5.854322   x
            x    C       431       55.226006   16.191665    5.859058   x
            x    C       432       41.785039   16.191311    5.864627   x
            x    C       433       49.856134   16.178289    5.858787   x
            x    C       434       39.084760   16.191384    5.863389   x
            x    C       435       63.297048   16.179031    5.853323   x
            x    C       436       31.013109   16.178900    5.855552   x
            x    C       437       57.926395   16.191654    5.865562   x
            x    C       438       33.714749   16.178756    5.856041   x
            x    C       439        6.798407   16.191702    5.856077   x
            x    C       440        1.428449   16.178879    5.858130   x
            x    C       441       25.643432   16.191973    5.856136   x
            x    C       442       22.942941   16.192344    5.855721   x
            x    C       443        9.498998   16.192214    5.858514   x
            x    C       444       51.201081   18.514097    5.858690   x
            x    C       445       45.809405   18.513954    5.856367   x
            x    C       446       43.122551   18.514317    5.873637   x
            x    C       447       53.888122   18.514584    5.874994   x
            x    C       448       35.059804   18.515612    5.856799   x
            x    C       449       59.264559   18.515143    5.877108   x
            x    C       450       37.746824   18.514882    5.878280   x
            x    C       451       61.951686   18.515851    5.858751   x
            x    C       452       29.668215   18.515806    5.862872   x
            x    C       453        2.773389   18.515737    5.862017   x
            x    C       454       26.981042   18.515577    5.873366   x
            x    C       455        5.460698   18.515353    5.877365   x
            x    C       456       10.837661   18.515519    5.871645   x
            x    C       457       18.917183   18.516233    5.850033   x
            x    C       458       21.604319   18.515699    5.872216   x
            x    C       459       13.524745   18.516199    5.853475   x
            x    C       460       47.154829   20.849178    5.854746   x
            x    C       461       49.855993   20.849207    5.859898   x
            x    C       462       55.226609   20.837701    5.849908   x
            x    C       463       41.784566   20.837533    5.854444   x
            x    C       464       31.013351   20.852027    5.865143   x
            x    C       465       39.083668   20.838494    5.855423   x
            x    C       466       63.297323   20.852321    5.862163   x
            x    C       467       33.714477   20.852141    5.864569   x
            x    C       468       57.927664   20.838839    5.858226   x
            x    C       469        1.428148   20.851967    5.868169   x
            x    C       470        6.798761   20.838849    5.855380   x
            x    C       471       22.941913   20.839132    5.853174   x
            x    C       472       25.643013   20.839046    5.854627   x
            x    C       473       14.870311   20.851539    5.854729   x
            x    C       474        9.499886   20.838852    5.857107   x
            x    C       475       17.571546   20.851600    5.856111   x
            x    C       476       51.194933   23.172631    5.866513   x
            x    C       477       45.815963   23.172568    5.866271   x
            x    C       478       43.128620   23.173861    5.850680   x
            x    C       479       59.272472   23.175446    5.861061   x
            x    C       480       37.738898   23.175224    5.860665   x
            x    C       481       53.882298   23.174065    5.850384   x
            x    C       482       26.987958   23.175679    5.856886   x
            x    C       483       35.052250   23.175782    5.875831   x
            x    C       484        2.766463   23.175624    5.879890   x
            x    C       485       29.675205   23.175877    5.878966   x
            x    C       486       61.959261   23.175924    5.878888   x
            x    C       487       10.844492   23.174976    5.860933   x
            x    C       488       18.910144   23.174683    5.873716   x
            x    C       489        5.453643   23.175320    5.862651   x
            x    C       490       21.597236   23.175193    5.862103   x
            x    C       491       13.531669   23.174615    5.876223   x
            x    C       492       55.228029   25.510560    5.853266   x
            x    C       493       31.013427   25.499483    5.855956   x
            x    C       494       39.083137   25.511131    5.859074   x
            x    C       495       63.297245   25.499394    5.854321   x
            x    C       496        6.798616   25.511408    5.863386   x
            x    C       497       25.642943   25.511798    5.862733   x
            x    C       498       33.714718   25.499401    5.854994   x
            x    C       499       41.783426   25.510332    5.857619   x
            x    C       500       57.928402   25.511264    5.862220   x
            x    C       501        1.428200   25.499264    5.860798   x
            x    C       502       22.942130   25.511333    5.863589   x
            x    C       503       14.869880   25.498301    5.854817   x
            x    C       504        9.499468   25.511078    5.867217   x
            x    C       505       17.571892   25.498326    5.856139   x
            x    C       506       18.916789   27.835394    5.859309   x
            x    C       507       26.981369   27.835512    5.874242   x
            x    C       508       35.059321   27.835594    5.853521   x
            x    C       509       59.265817   27.835171    5.872071   x
            x    C       510        2.772728   27.835605    5.862553   x
            x    C       511       10.837452   27.834934    5.878783   x
            x    C       512       21.604210   27.835260    5.879002   x
            x    C       513       29.668743   27.835763    5.862002   x
            x    C       514       37.745825   27.835017    5.872729   x
            x    C       515       53.890467   27.834695    5.869576   x
            x    C       516       61.952395   27.835645    5.856903   x
            x    C       517        5.460129   27.835213    5.878498   x
            x    C       518       13.524864   27.835154    5.863332   x
            x    C       519       43.120796   27.834516    5.867598   x
            x    C       520       14.870044   30.171555    5.865043   x
            x    C       521       22.941864   30.159321    5.854951   x
            x    C       522       31.013838   30.171537    5.862984   x
            x    C       523       63.297357   30.171390    5.860826   x
            x    C       524        6.798270   30.158958    5.853856   x
            x    C       525       17.571489   30.171753    5.866319   x
            x    C       526       25.643261   30.159242    5.853361   x
            x    C       527       33.714604   30.171396    5.861847   x
            x    C       528        1.427675   30.171383    5.867166   x
            x    C       529        9.499686   30.158950    5.858583   x
            x    C       530       39.083093   30.158749    5.849114   x
            x    C       531       55.227615   30.159058    5.844901   x
            x    C       532       57.928516   30.158979    5.851686   x
            x    C       533       41.783977   30.158957    5.849788   x
            x    C       534       13.531403   32.494973    5.882105   x
            x    C       535       10.844292   32.495469    5.862478   x
            x    C       536       18.910150   32.495138    5.879586   x
            x    C       537       26.988133   32.495876    5.855450   x
            x    C       538        2.766140   32.494960    5.878424   x
            x    C       539       21.597244   32.495759    5.863570   x
            x    C       540       29.675439   32.495159    5.878076   x
            x    C       541       61.958969   32.494797    5.876412   x
            x    C       542        5.453374   32.495506    5.860776   x
            x    C       543       35.052673   32.494769    5.873542   x
            x    C       544       59.272185   32.495535    5.856156   x
            x    C       545       37.739365   32.495394    5.856246   x
            x    C       546       43.128898   32.495984    5.851175   x
            x    C       547       14.869777   34.818014    5.857714   x
            x    C       548       22.942201   34.831409    5.863601   x
            x    C       549        9.499381   34.831162    5.867203   x
            x    C       550       17.571647   34.818021    5.858869   x
            x    C       551        6.798758   34.831371    5.863464   x
            x    C       552       31.013344   34.819038    5.857457   x
            x    C       553       63.296695   34.818657    5.853847   x
            x    C       554       25.642799   34.831746    5.863395   x
            x    C       555        1.428072   34.818871    5.860493   x
            x    C       556       39.084467   34.831478    5.857540   x
            x    C       557       33.715083   34.818576    5.855828   x
            x    C       558       57.927208   34.831676    5.860050   x
            x    C       559       55.226802   34.832386    5.852831   x
            x    C       560       41.784742   34.831996    5.857361   x
            x    C       561       18.917100   37.153895    5.857148   x
            x    C       562       13.524474   37.153853    5.860915   x
            x    C       563       10.837325   37.154182    5.877032   x
            x    C       564       21.604263   37.154449    5.877653   x
            x    C       565        2.772952   37.155565    5.863693   x
            x    C       566       26.981257   37.155032    5.877000   x
            x    C       567        5.460217   37.154736    5.880629   x
            x    C       568       29.668425   37.155704    5.864416   x
            x    C       569       61.951461   37.155747    5.858014   x
            x    C       570       35.060218   37.155503    5.855505   x
            x    C       571       59.264396   37.155519    5.873957   x
            x    C       572       37.747268   37.155152    5.875184   x
            x    C       573       43.122945   37.155179    5.868163   x
            x    C       574       51.201308   37.156063    5.851813   x
            x    C       575       53.888257   37.155584    5.869671   x
            x    C       576       45.809744   37.155848    5.849236   x
            xxxxxxxxxxxxxxxxxxxxxxxxxxxxxxxxxxxxxxxxxxxxxxxxxxxxxxxxxxxx
 

LBFGS: continuation file name is "graphite.continuation"
 LBFGS: Restarting previous  geometry optimization.
 avg_mass=  20867.333643189002
 Enthalpy contributions:
                  total energy=  -3.13321816E+003 Eh
        diagonal pressure term=   0.00000000E+000 Eh
    off-diagonal pressure term=   0.00000000E+000 Eh
 LBFGS: finished iteration   0  with enthalpy= -3.133218158163E+003 Eh
  
 +-----------+-----------------+-----------------+------------+-----+ <-- LBFGS
 | Parameter |      value      |    tolerance    |    units   | OK? | <-- LBFGS
 +-----------+-----------------+-----------------+------------+-----+ <-- LBFGS
 |  dE/ion   |   0.000000E+000 |   1.000000E-006 |         Eh | No  | <-- LBFGS
 |  |F|max   |   1.752434E-003 |   2.000000E-003 |    Eh/Bohr | Yes | <-- LBFGS
 |  |dR|max  |   0.000000E+000 |   5.000000E-003 |       Bohr | No  | <-- LBFGS
 +-----------+-----------------+-----------------+------------+-----+ <-- LBFGS
  

================================================================================
 Starting LBFGS iteration    1 ...
================================================================================
 Writing xyz coordinates to file "graphite.xyz" ... done

 Writing continuation file "graphite.continuation" ...done
 Backing up NGWFs to file "graphite.tightbox_ngwfs.bfgs_back" ... done
 Backing up Hamiltonian to file "graphite.ham.bfgs_back" ... done
  
 +------------+-------------+-------------+-----------------+ <-- min LBFGS
 |    Step    |   lambda    |   F.delta   |    enthalpy     | <-- min LBFGS
 +------------+-------------+-------------+-----------------+ <-- min LBFGS
 |  previous  |    0.000000 |    0.001363 |    -3133.218158 | <-- min LBFGS
 +------------+-------------+-------------+-----------------+ <-- min LBFGS
  

--------------------------------------------------------------------------------
 LBFGS: starting iteration   1 with trial guess (lambda=    1.000000)
--------------------------------------------------------------------------------
 
                           -------------------------------
                                     Cell Contents
                           -------------------------------
 
            xxxxxxxxxxxxxxxxxxxxxxxxxxxxxxxxxxxxxxxxxxxxxxxxxxxxxxxxxxxx
            x  Element    Atom      Absolute co-ordinates of atoms     x
            x            Number        x           y           z       x
            x----------------------------------------------------------x
            x    Li        1        0.035077   37.134077   16.443591   x
            x    Li        2        0.035268   27.811317   16.444454   x
            x    Li        3        0.035064   18.486470   16.443253   x
            x    Li        4        0.035006    9.170761   16.441645   x
            x    Li        5        8.133575   32.464815   16.443464   x
            x    Li        6        8.134468   23.152544   16.445626   x
            x    Li        7        8.139224   13.830240   16.436436   x
            x    Li        8        8.136718    4.515585   16.441199   x
            x    Li        9       16.235932    9.176333   16.423130   x
            x    Li       10       16.236142   18.478407   16.432707   x
            x    Li       11       16.236309   27.811091   16.443845   x
            x    Li       12       16.236107   37.137836   16.443236   x
            x    Li       13       24.332789   32.464399   16.439963   x
            x    Li       14       24.331947   23.152692   16.442075   x
            x    Li       15       24.325226   13.831020   16.434196   x
            x    Li       16       24.328131    4.515097   16.439328   x
            x    Li       17       32.409171   37.132746   16.442288   x
            x    Li       18       32.409194   27.811197   16.440207   x
            x    Li       19       32.409836   18.487817   16.442119   x
            x    Li       20       32.409830    9.170726   16.443220   x
            x    Li       21       40.461236   32.461773   16.433398   x
            x    Li       22       40.456429   23.156616   16.439209   x
            x    Li       23       40.452413   13.833225   16.441021   x
            x    Li       24       40.452986    4.511440   16.442736   x
            x    Li       25       48.477497   37.124802   16.430121   x
            x    Li       26       48.477416   27.816409   16.420433   x
            x    Li       27       48.477540   18.491239   16.440572   x
            x    Li       28       48.477580    9.170516   16.441454   x
            x    Li       29       56.515998   32.462526   16.432746   x
            x    Li       30       56.519614   23.155944   16.438683   x
            x    Li       31       56.524614   13.832680   16.439243   x
            x    Li       32       56.523782    4.512030   16.440435   x
            x    C        33       18.931699    9.202140   12.885578   x
            x    C        34       13.514379    9.202029   12.886658   x
            x    C        35       14.872016   11.543941   12.885611   x
            x    C        36       17.573896   11.544083   12.885480   x
            x    C        37       51.211612   27.841988   12.886788   x
            x    C        38       45.798085   27.841829   12.886362   x
            x    C        39       47.154969   30.183937   12.885621   x
            x    C        40       49.855377   30.183769   12.886182   x
            x    C        41       14.871394    6.858943   12.886817   x
            x    C        42       17.574538    6.858942   12.886611   x
            x    C        43       21.589499   13.862579   12.897088   x
            x    C        44       18.916695   13.862015   12.890811   x
            x    C        45       13.529356   13.862049   12.888178   x
            x    C        46       14.871786   16.180017   12.897780   x
            x    C        47       17.574427   16.179982   12.897631   x
            x    C        48       47.154269   25.498699   12.886818   x
            x    C        49       49.855791   25.499212   12.886992   x
            x    C        50       53.867602   32.502463   12.895349   x
            x    C        51       51.195745   32.502138   12.890968   x
            x    C        52       45.814311   32.501932   12.888572   x
            x    C        53       47.154498   34.819883   12.897791   x
            x    C        54       49.855727   34.820361   12.898000   x
            x    C        55       14.872223    2.223215   12.895731   x
            x    C        56       17.573725    2.223477   12.895658   x
            x    C        57       22.945812    2.199828   12.905351   x
            x    C        58        9.499405    2.199401   12.905942   x
            x    C        59       63.294977    2.224569   12.902351   x
            x    C        60        6.796920    2.199449   12.907698   x
            x    C        61       31.018073    2.223798   12.903618   x
            x    C        62        1.425084    2.223886   12.902978   x
            x    C        63       25.647869    2.199742   12.905646   x
            x    C        64       33.718082    2.224183   12.902881   x
            x    C        65       39.086441    2.199781   12.909506   x
            x    C        66       55.223533    2.200030   12.903761   x
            x    C        67       57.924895    2.200738   12.905883   x
            x    C        68       47.155134    2.224070   12.892704   x
            x    C        69       41.787369    2.199700   12.906580   x
            x    C        70       49.854993    2.223949   12.892384   x
            x    C        71       18.916817    4.540908   12.886694   x
            x    C        72       13.529126    4.540736   12.884200   x
            x    C        73       10.856094    4.541783   12.897372   x
            x    C        74       27.004658    4.542526   12.901983   x
            x    C        75        5.439871    4.542289   12.904407   x
            x    C        76       21.589486    4.542065   12.898005   x
            x    C        77       59.280539    4.542508   12.904590   x
            x    C        78        2.766963    4.542025   12.899873   x
            x    C        79       35.059174    4.541626   12.902329   x
            x    C        80       61.952770    4.542102   12.897686   x
            x    C        81       29.677055    4.541935   12.898575   x
            x    C        82       43.143111    4.542097   12.904405   x
            x    C        83       51.195323    4.541949   12.894736   x
            x    C        84       37.730836    4.541851   12.908806   x
            x    C        85       53.867050    4.542628   12.901865   x
            x    C        86       45.814459    4.541638   12.894187   x
            x    C        87       22.946522    6.883470   12.894172   x
            x    C        88       63.294657    6.859869   12.906740   x
            x    C        89        6.797480    6.883837   12.898708   x
            x    C        90       31.017266    6.860368   12.909813   x
            x    C        91       39.087238    6.883065   12.904517   x
            x    C        92       57.923928    6.883467   12.900581   x
            x    C        93        1.425998    6.860557   12.907281   x
            x    C        94        9.498821    6.883348   12.894737   x
            x    C        95       25.647458    6.884120   12.896819   x
            x    C        96       33.718429    6.859570   12.909288   x
            x    C        97       55.223568    6.884175   12.900454   x
            x    C        98       47.154432    6.859638   12.906670   x
            x    C        99       41.787139    6.883373   12.903872   x
            x    C       100       49.855477    6.860232   12.906002   x
            x    C       101       51.210606    9.202279   12.905041   x
            x    C       102       59.265314    9.202058   12.896646   x
            x    C       103        2.781889    9.202758   12.903546   x
            x    C       104       26.989771    9.201952   12.894889   x
            x    C       105       35.074345    9.202454   12.904999   x
            x    C       106       43.127227    9.201573   12.901158   x
            x    C       107       53.882185    9.201980   12.896721   x
            x    C       108       61.938239    9.202852   12.902627   x
            x    C       109        5.454626    9.201829   12.893866   x
            x    C       110       21.604834    9.201722   12.885525   x
            x    C       111       29.661895    9.202646   12.905695   x
            x    C       112       37.746610    9.201608   12.898267   x
            x    C       113       45.798642    9.201981   12.906395   x
            x    C       114       10.841087    9.201468   12.887778   x
            x    C       115       47.154920   11.543261   12.904408   x
            x    C       116       55.222945   11.520078   12.904860   x
            x    C       117       63.295491   11.544766   12.900308   x
            x    C       118       31.017651   11.543891   12.902645   x
            x    C       119       39.086496   11.520429   12.907645   x
            x    C       120       49.854782   11.543148   12.903787   x
            x    C       121       57.924632   11.521080   12.904078   x
            x    C       122        1.425663   11.543982   12.900302   x
            x    C       123       33.717643   11.544352   12.902749   x
            x    C       124       41.787527   11.519944   12.907870   x
            x    C       125        6.797016   11.519849   12.900769   x
            x    C       126       22.946009   11.520273   12.897650   x
            x    C       127       25.648016   11.520009   12.898623   x
            x    C       128        9.499435   11.519959   12.898283   x
            x    C       129       45.814043   13.860890   12.901007   x
            x    C       130       43.142667   13.862198   12.905954   x
            x    C       131       51.195307   13.861140   12.901594   x
            x    C       132       59.280678   13.863264   12.902564   x
            x    C       133       35.059004   13.862039   12.900454   x
            x    C       134       53.867032   13.862525   12.903669   x
            x    C       135       61.953019   13.862412   12.896390   x
            x    C       136       29.676631   13.861963   12.895050   x
            x    C       137       37.730666   13.862851   12.906142   x
            x    C       138        2.767531   13.861916   12.896455   x
            x    C       139       27.004349   13.862717   12.896503   x
            x    C       140        5.440366   13.862573   12.898989   x
            x    C       141       10.856317   13.862463   12.896249   x
            x    C       142       47.154164   16.178895   12.909964   x
            x    C       143       55.224251   16.203820   12.900605   x
            x    C       144       41.786243   16.203363   12.903501   x
            x    C       145       49.855434   16.179412   12.909631   x
            x    C       146       39.086673   16.203774   12.903821   x
            x    C       147       63.294764   16.180165   12.907139   x
            x    C       148       31.017041   16.180484   12.907422   x
            x    C       149       57.924394   16.203910   12.900489   x
            x    C       150       33.718295   16.179941   12.907710   x
            x    C       151        6.797896   16.204228   12.896129   x
            x    C       152        1.426153   16.180484   12.906469   x
            x    C       153       25.647299   16.204432   12.893922   x
            x    C       154       22.946431   16.203981   12.893855   x
            x    C       155        9.499143   16.203915   12.894582   x
            x    C       156       51.210927   18.521767   12.904756   x
            x    C       157       45.798254   18.521665   12.905230   x
            x    C       158       43.126611   18.521063   12.900927   x
            x    C       159       53.882780   18.521229   12.897354   x
            x    C       160       35.074159   18.522509   12.904719   x
[...]
 C    69 -- C    91       -0.06      0.00      5.40616
 C    62 -- C   265       -0.06      0.00      5.40619
 C   175 -- C   206       -0.06      0.00      5.40619
 C   180 -- C   204       -0.06      0.00      5.40623
 C    54 -- C    68       -0.06      0.00      5.40625
 C   152 -- C   178       -0.06      0.00      5.40627
 C   245 -- C   268       -0.06      0.00      5.40635
 C   244 -- C   271       -0.06      0.00      5.40636
 C   142 -- C   173       -0.06      0.00      5.40641
 C   150 -- C   176       -0.06      0.00      5.40643
 C   238 -- C   260       -0.06      0.00      5.40644
 C    90 -- C   123       -0.06      0.00      5.40645
 C    66 -- C    92       -0.06      0.00      5.40648
 C    53 -- C    70       -0.06      0.00      5.40649
 C    67 -- C    97       -0.06      0.00      5.40649
 C   217 -- C   232       -0.06      0.00      5.40651
 C   124 -- C   146       -0.06      0.00      5.40654
 C   205 -- C   239       -0.06      0.00      5.40657
 C   215 -- C   237       -0.06      0.00      5.40661
 C   174 -- C   212       -0.06      0.00      5.40664
 C   147 -- C   181       -0.06      0.00      5.40666
 C    35 -- C    42       -0.06      0.00      5.40666
 C   210 -- C   234       -0.06      0.00      5.40667
 C   236 -- C   261       -0.06      0.00      5.40669
 C   183 -- C   209       -0.06      0.00      5.40671
 C    59 -- C   267       -0.06      0.00      5.40673
 C    96 -- C   118       -0.06      0.00      5.40676
 C    63 -- C    87       -0.06      0.00      5.40681
 C   243 -- C   270       -0.06      0.00      5.40682
 C    36 -- C    41       -0.06      0.00      5.40683
 C   116 -- C   149       -0.06      0.00      5.40687
 C   127 -- C   154       -0.06      0.00      5.40689
 C    57 -- C    95       -0.06      0.00      5.40690
 C   207 -- C   240       -0.06     -0.00      5.40691
 C   184 -- C   214       -0.06      0.00      5.40695
 C    93 -- C   117       -0.06      0.00      5.40703
 C    55 -- C   262       -0.06      0.00      5.40703
 C   186 -- C   208       -0.06      0.00      5.40704
 C    88 -- C   122       -0.06      0.00      5.40707
 C   233 -- C   266       -0.06      0.00      5.40708
 C   213 -- C   235       -0.06      0.00      5.40709
 C   125 -- C   155       -0.06      0.00      5.40711
 C   126 -- C   153       -0.06      0.00      5.40711
 C   182 -- C   216       -0.06      0.00      5.40713
 C    60 -- C    94       -0.06      0.00      5.40716
 C    58 -- C    89       -0.06      0.00      5.40718
 C    56 -- C   259       -0.06      0.00      5.40724
 C    47 -- C   185       -0.06      0.00      5.40729
 C    46 -- C   187       -0.06      0.00      5.40740
 C   128 -- C   151       -0.06      0.00      5.40743
 C   241 -- C   263       -0.06      0.00      5.40744
 C    37 -- C    38       -0.06      0.00      5.41163
 C   101 -- C   113       -0.06      0.00      5.41168
 C   286 -- C   288       -0.06      0.00      5.41193
 C    82 -- C    84       -0.06      0.00      5.41195
 C   156 -- C   157       -0.06      0.00      5.41203
 C   130 -- C   137       -0.06      0.00      5.41203
 C   190 -- C   192       -0.06      0.00      5.41215
 C   257 -- C   258       -0.06      0.00      5.41216
 C   160 -- C   164       -0.06     -0.00      5.41260
 C   280 -- C   282       -0.06     -0.00      5.41267
 C   105 -- C   111       -0.06      0.00      5.41292
 C   220 -- C   225       -0.06      0.00      5.41298
 C    50 -- C   256       -0.06     -0.00      5.41334
 C    77 -- C    85       -0.06     -0.00      5.41336
 C   191 -- C   193       -0.06     -0.00      5.41358
 C   132 -- C   134       -0.06     -0.00      5.41359
 C   277 -- C   281       -0.06     -0.00      5.41433
 C   163 -- C   165       -0.06     -0.00      5.41450
 C   222 -- C   228       -0.06      0.00      5.41465
 C   103 -- C   108       -0.06      0.00      5.41479
 C   194 -- C   202       -0.06     -0.00      5.41488
 C    43 -- C   139       -0.06     -0.00      5.41494
 C   249 -- C   251       -0.06     -0.00      5.41500
 C    74 -- C    76       -0.06     -0.00      5.41506
 C   218 -- C   230       -0.06      0.00      5.41562
 C    33 -- C    34       -0.06      0.00      5.41578
 C   169 -- C   171       -0.06      0.00      5.41591
 C   140 -- C   141       -0.06      0.00      5.41613
 C   273 -- C   274       -0.06      0.00      5.41614
 C    73 -- C    75       -0.06      0.00      5.41620
 C   199 -- C   201       -0.06      0.00      5.41621
 C   247 -- C   254       -0.06      0.00      5.41626
=============================================================


============== Orbital energy and occupancy information for spin 1 =============

      Total number of orbitals:    2368
        Occupancy sum (kernel):    1109.893692344
   Occupancy sum (eigenvalues):    1109.893692344
                 HOMO-LUMO gap:       0.000697538 Eh
                 Mid-gap level:      -0.166272104 Eh

                        Orbital | Energy (Eh) | Occupancy
                            1    -1.959259509   1.0000000
                        .......   ...........   .........
                         1101    -0.170819261   0.7730026
                         1102    -0.170811806   0.7727027
                         1103    -0.170806019   0.7723628
                         1104    -0.170804200   0.7722506
                         1105    -0.168412030   0.6388684
                         1106    -0.168406490   0.6385224
                         1107    -0.168383023   0.6370444
                         1108    -0.168379832   0.6368987
                         1109    -0.167404370   0.5736028
                         1110    -0.166620873   0.5210589
                        ....... -- gap at 0K -- .........
                         1111    -0.165923335   0.4725655
                         1112    -0.165374000   0.4409324
                         1113    -0.165369387   0.4406234
                         1114    -0.165357099   0.4397836
                         1115    -0.165352644   0.4394795
                         1116    -0.164626283   0.3916777
                         1117    -0.164624806   0.3915787
                         1118    -0.160376193   0.1658612
                         1119    -0.160361815   0.1653071
                         1120    -0.159758108   0.1434720
                        .......   ...........   .........
                         2368     0.714118323   0.0000000

================================================================================

============== Orbital energy and occupancy information for spin 2 =============

      Total number of orbitals:    2368
        Occupancy sum (kernel):    1109.893692219
   Occupancy sum (eigenvalues):    1109.893692219
                 HOMO-LUMO gap:       0.000697539 Eh
                 Mid-gap level:      -0.166272104 Eh

                        Orbital | Energy (Eh) | Occupancy
                            1    -1.959259509   1.0000000
                        .......   ...........   .........
                         1101    -0.170819261   0.7730026
                         1102    -0.170811806   0.7727027
                         1103    -0.170806020   0.7723628
                         1104    -0.170804199   0.7722506
                         1105    -0.168412029   0.6388684
                         1106    -0.168406490   0.6385223
                         1107    -0.168383024   0.6370444
                         1108    -0.168379831   0.6368987
                         1109    -0.167404370   0.5736027
                         1110    -0.166620874   0.5210589
                        ....... -- gap at 0K -- .........
                         1111    -0.165923335   0.4725656
                         1112    -0.165374000   0.4409324
                         1113    -0.165369387   0.4406234
                         1114    -0.165357100   0.4397836
                         1115    -0.165352644   0.4394795
                         1116    -0.164626283   0.3916777
                         1117    -0.164624807   0.3915786
                         1118    -0.160376192   0.1658612
                         1119    -0.160361815   0.1653071
                         1120    -0.159758109   0.1434721
                        .......   ...........   .........
                         2368     0.714118322   0.0000000

================================================================================

===================== Writing canonical molecular orbitals =====================
    Spin 1
| Orbital  Energy (eV)  Norm     |
| HOMO-5   -4.58272451  1.000000 | 
| HOMO-4   -4.58257377  1.000000 | 
| HOMO-3   -4.58193521  1.000000 | 
| HOMO-2   -4.58184836  1.000000 | 
| HOMO-1   -4.55530470  1.000000 | 
| HOMO     -4.53398466  1.000000 | 
| LUMO     -4.51500369  1.000000 | 
| LUMO+1   -4.50005553  1.000000 | 
| LUMO+2   -4.49993000  1.000000 | 
| LUMO+3   -4.49959562  1.000000 | 
| LUMO+4   -4.49947439  1.000000 | 
| LUMO+5   -4.47970911  1.000000 | 
================================================================================

===================== Writing canonical molecular orbitals =====================
    Spin 2
| Orbital  Energy (eV)  Norm     |
| HOMO-5   -4.58272450  1.000000 | 
| HOMO-4   -4.58257378  1.000000 | 
| HOMO-3   -4.58193522  1.000000 | 
| HOMO-2   -4.58184835  1.000000 | 
| HOMO-1   -4.55530471  1.000000 | 
| HOMO     -4.53398467  1.000000 | 
| LUMO     -4.51500368  1.000000 | 
| LUMO+1   -4.50005552  1.000000 | 
| LUMO+2   -4.49992999  1.000000 | 
| LUMO+3   -4.49959564  1.000000 | 
| LUMO+4   -4.49947439  1.000000 | 
| LUMO+5   -4.47970911  1.000000 | 
================================================================================
 
=============== Density of States (DOS) calculation for UP spin ================
Writing "graphite_UP_DOS.txt" ... done
================================================================================
 
============== Density of States (DOS) calculation for DOWN spin ===============
Writing "graphite_DN_DOS.txt" ... done
================================================================================
 
Writing bands to file "graphite.val_bands" ... done

IS: Calculating electrolyte contribution to the atomic forces ...
================================================================================
 
***********************************************************
********** Summary of Forces (values in Eh/a) *************
*                                                         *
* ---------------------- Minimum ------------------------ *
* Atom:       526, |F|min =    0.00006358                 *
* Components:     Fx|min       Fy|min       Fz|min        *
*              -0.00005990  -0.00002128  -0.00000126      *
*                                                         *
* ---------------------- Maximum ------------------------ *
* Atom:       320, |F|max =    0.00107909                 *
* Components:     Fx|max       Fy|max       Fz|max        *
*               0.00033355   0.00102295  -0.00008222      *
*                                                         *
* ---------------- Root Mean Square Force --------------- *
*                  |F|rms =    0.00049578                 *
* Components:     Fx|rms       Fy|rms       Fz|rms        *
*               0.00010872   0.00027140   0.00040040      *
***********************************************************
 

                                                      hartree           kcal/mol
IS: NB: Energy of pure electrolyte:         -0.09036413878687         -56.704352

------------------------------ TIMING INFORMATION ------------------------------
AVERAGE TIME:    9590.473s on    128 proc(s)                                    
TOTAL TIME:      9590.480s on    128 proc(s)                                    
================= AVERAGE TIMINGS FROM ALL PROCS (CUMULATIVE) ==================
|| TAG                                    #calls    cpu time   %total  Gflops ||
|| linalg_invert_sym_matrix             :     4        0.00s   0.000%  ------ || (1 procs only)
|| density_fftbox_interp_mult_imbal     : 11840        0.00s   0.000%  ------ ||
|| sparse_set_to_garbage                :   140        0.01s   0.000%  ------ ||
|| onetep.F90 final imbalance           :     1        0.02s   0.000%  ------ ||
|| ewald_calculate_forces_realspace     :     7        0.03s   0.000%  ------ ||
|| vdwcorrection_calculate_forces       :     7        0.06s   0.001%  ------ ||
|| basis_extract_function_from_box      :  1165        0.09s   0.001%  ------ ||
|| onetep.F90 main loop imbalance       :     1        0.09s   0.001%  ------ ||
|| vdwcorrection_calculate_energy       :     7        0.10s   0.001%  ------ ||
|| pseudopotentials_core_density        :     7        0.14s   0.001%  ------ ||
|| pseudopotentials_local_on_grid       :     7        0.14s   0.001%  ------ ||
|| sparse_spam3toblacs_real_fast_imbal  :  1088        0.19s   0.002%  ------ ||
|| parallel_prepare_fd_halos_alloc      : 37176        0.20s   0.002%  ------ ||
|| pseudopotentials_nonlocal_mat        :    21        0.31s   0.003%  ------ ||
|| restart_hamiltonian_read             :     7        0.32s   0.003%  ------ ||
|| parallel_prepare_fd_halos_request    : 37176        0.36s   0.004%  ------ ||
|| sparse_blacstospam3_real_fast_imbal  :  1068        0.38s   0.004%  ------ ||
|| restart_hamiltonian_write            :    14        0.78s   0.008%  ------ ||
|| pseudo_make_structure_factor         :     7        0.95s   0.010%  ------ ||
|| sparse_spam3toblacs_real_fast_B2     : 139.3k       0.96s   0.010%  ------ ||
|| smeared_ion_generate_potential_PBC   :     7        1.44s   0.015%  ------ ||
|| parallel_prepare_fd_halos_satisfy    : 37176        1.67s   0.017%  ------ ||
|| ngwf_gradient_coeffs                 :    14        2.36s   0.025%  ------ ||
|| energy_and_force_init_cell           :     1        2.54s   0.026%  ------ ||
|| sparse_init                          :     7        2.56s   0.027%  ------ ||
|| restart_kernel_write                 :    21        3.58s   0.037%  ------ ||
|| pseudo_local_calculate_forces        :     7        3.77s   0.039%  ------ ||
|| integrals_grad_spam3                 :     7        4.36s   0.045%  ------ ||
|| nonsc_forces_ngwfs_calc              :     7        4.40s   0.046%  ------ ||
|| eigenstates_calculate                :     1        4.46s   0.046%  ------ ||
|| ewald_calculate_energy               :     7        4.77s   0.050%  ------ ||
|| density_init_guess_real              :     7        4.78s   0.050%  ------ ||
|| sparse_embed_hotelling_invert_embed  :    21        4.88s   0.051%  ------ ||
|| projectors_func_ovlp_box_spam3       :    21        5.35s   0.056%  ------ ||
|| pseudo_nlcc_calculate_forces         :     7        5.45s   0.057%  ------ ||
|| projectors_func_grad_ovlp_box_spam3  :    21        5.77s   0.060%  ------ ||
|| pseudo_nl_calculate_forces           :     7        6.60s   0.069%  ------ ||
|| fourier_filter_cell                  :   244        6.77s   0.071% 200.846 ||
|| sparse_trace                         :  4108        8.49s   0.088%  ------ ||
|| projectors_init_fftbox_recip         :    98        9.50s   0.099%  ------ ||
|| restart_ngwfs_tightbox_input         :     7       10.68s   0.111%  ------ ||
|| fourier_apply_box_pair               :  1302       11.81s   0.123%  1.780k ||
|| function_ops_brappd_ketppd_spam3     :    35       12.48s   0.130%  ------ ||
|| boltzmann_init_steric_pot            :     7       13.08s   0.136%  ------ ||
|| basis_copy_function_to_box           : 16058       13.53s   0.141%  ------ ||
|| parallel_prepare_fd_halos_comms_imbal: 37176       13.75s   0.143%  ------ ||
|| ewald_calculate_forces_recipspace    :     7       14.46s   0.151%  ------ ||
|| ewald_calculate_forces               :     7       14.63s   0.153%  ------ ||
|| parallel_prepare_fd_halos_clear      : 37176       14.94s   0.156%  ------ ||
|| integrals_kinetic_spam3              :    21       19.95s   0.208%  ------ ||
|| parallel_prepare_fd_halos_comms_wait : 37176       24.88s   0.259%  ------ ||
|| fourier_interpolate_cell             :   592       30.68s   0.320% 107.505 ||
|| properties_calculate                 :     1       30.78s   0.321%  ------ ||
|| sparse_product                       :  2516       31.51s   0.329%  ------ ||
|| fourier_apply_cell_backward          :  2487       40.88s   0.426% 171.100 ||
|| projectors_gradient_batch            :    56       43.88s   0.458%  ------ ||
|| sparse_spam3toblacs_real_fast_B1     : 139.3k      44.37s   0.463%  ------ ||
|| sparse_spam3toblacs_real_fast        :  1088       47.54s   0.496%  ------ ||
|| basis_dot_function_with_box          : 2.973M      54.55s   0.569%  ------ ||
|| parallel_prepare_fd_halos            : 37176       56.01s   0.584%  ------ ||
|| cell_grid_extract_box_real           :  4880       61.88s   0.645%  ------ ||
|| restart_ngwfs_tightbox_output        :     8       70.31s   0.733%  ------ ||
|| sparse_blacstospam3_real_fast        :  1068       82.66s   0.862%  ------ ||
|| xc_energy_potential                  :   303       91.78s   0.957%  ------ ||
|| fourier_apply_cell_forward           :  2459      124.59s   1.299%  55.501 ||
|| cell_grid_deposit_box_real           : 12390      137.36s   1.432%  ------ ||
|| dense_eigensolve                     :   522      169.07s   1.763%  ------ ||
|| basis_add_function_to_box            : 9.126M     176.63s   1.842%  ------ ||
|| ngwf_gradient_build_batch            :    56      188.91s   1.970%  ------ ||
|| finite_difference_derivative         : 37176      192.47s   2.007%  ------ ||
|| integrals_locpot_mat_els_batch       :   432      211.62s   2.207%  ------ ||
|| edft_diag_ngwf_ham                   :   520      213.44s   2.226%  ------ ||
|| hamiltonian_energy_components        :     7      253.30s   2.641%  ------ ||
|| ngwf_gradient_batch                  :    56      287.18s   2.994%  ------ ||
|| ngwf_gradient_lnv                    :    14      298.46s   3.112%  ------ ||
|| edft_apply_smearing_operator         :   260      328.42s   3.424%  ------ ||
|| implicit_solvent_boltzmann_forces    :     7      353.44s   3.685%  ------ ||
|| density_batch_row_sums               :  1184      405.12s   4.224%  ------ ||
|| density_fftbox_deposit_to_cell       : 11840      526.15s   5.486%  ------ ||
|| smeared_ion_force_correction         :    14      696.22s   7.259%  ------ ||
|| implicit_solvent_soft_sphere_forces  :     7      758.94s   7.913%  ------ ||
|| potential_apply_to_ngwf_batch        :   432      852.95s   8.894%  ------ ||
|| integrals_locpot_dbl_grid            :   216     1065.75s  11.113%  ------ ||
|| fourier_apply_box                    : 34583     1077.70s  11.237%  2.491k ||
|| density_fftbox_interpolate_multiply  : 11840     1258.49s  13.122%  ------ ||
|| dl_mg_solver_calls                   :   296     1416.90s  14.774%  ------ ||
|| multigrid_calculate_hartree          :   296     1447.02s  15.088%  ------ ||
|| forces_calculate                     :     7     1915.30s  19.971%  ------ ||
|| density_batch_interp_deposit         :  1184     2433.10s  25.370%  ------ ||
|| density_on_dbl_grid                  :   592     3038.93s  31.687%  ------ ||
|| hamiltonian_lhxc_calculate           :   282     4540.61s  47.345%  ------ ||
|| edft_calculate                       :    14     5615.44s  58.552%  ------ ||
|| ngwf_cg_optimise                     :     7     6393.76s  66.668%  ------ ||
|| energy_and_forces                    :     7     9547.23s  99.549%  ------ ||
|| total_time                           :     1     9590.47s 100.000%  ------ ||
================================================================================
Overhead of generating timer report: 
- 0 ms averaging over threads,
- 19 ms ensuring consistency across MPI ranks,
- 39 ms printing in order.

Job completed: 01-11-2023 02:20 (+0000)

