==================================================================================
It's Mon 23 Oct 2023 09:44:29 AM BST.
*** Starting onetep_launcher (node nid002037, PIDs 190184 190185 190186 190187 190188 190189 190190 190191 190192 190193 190194 190195 190196 190197 190198 190199)...
    - ONETEP arguments: graphite.dat
    - Current directory: /mnt/lustre/a2fs-work3/work/e89/e89/arihant/linuc/n/new/03/0.-1
    - Launcher executable directory: /mnt/lustre/a2fs-work3/work/e89/e89/arihant/onetep/utils
    - (-e) ONETEP executable specified through command-line: /work/e89/e89/arihant/onetep/bin/onetep.archer2_2023_cray
      ... trying /work/e89/e89/arihant/onetep/bin/onetep.archer2_2023_cray
          -> looks OK
*** Setting up environment...
    - (-s) Process stack size: unlimited
    - (-t) OMP_NUM_THREADS: 8
    - (-o) OMP_STACKSIZE: 64M
    - (-c) Maximum core file size: 2048000
    - (-d) decfort_dump_flag: n
    - (-m) I_MPI_OFA_TRANSLATION_CACHE: 0
    - (-m) I_MPI_DAPL_TRANSLATION_CACHE: 0
    - (-m) I_MPI_DAPL_UD_TRANSLATION_CACHE: 0
*** Starting ONETEP...
    - /work/e89/e89/arihant/onetep/bin/onetep.archer2_2023_cray graphite.dat
=================================================================================
_________________________________________________________________________________
 +---------------------------------------------------------------+
 |                                                               |
 |        ####### #     # ####### ####### ####### ######         |
 |        #     # ##    # #          #    #       #     #        |
 |        #     # # #   # #          #    #       #     #        |
 |        #     # #  #  # #####      #    #####   ######         |
 |        #     # #   # # #          #    #       #              |
 |        #     # #    ## #          #    #       #              |
 |        ####### #     # #######    #    ####### #              |
 |                                                               |
 |        Linear-Scaling Ab Initio Total Energy Program          |
 |                                                               |
 |          Release for academic collaborators of ODG            |
 |                                             Version 6.1.59    |
 | Remote: https://github.com/onetep-devel/onetep.git            |
 | Local branch: master                                          |
 | Commit ID: 3df6b8ca88fa1735659d3248d54c94b50edec21b           |
 | Date: Thu Oct 5 13:49:52 2023 +0200                           |
 | Working tree clean                                            |
 |                                                               |
 +---------------------------------------------------------------+
 |                                                               |
 |  Authors:                                                     |
 |  Jacek Dziedzic, Peter D. Haynes, Nicholas D. M. Hine,        |
 |  Arash A. Mostofi, Mike C. Payne and Chris-Kriton Skylaris    |
 |                                                               |
 |  Contributors:                                                |
 |  J. Aarons, L. Andrinopoulos, P. W. Avraam, R. A. Bell,       |
 |  A. Bhandari, G. A. Bramley, R. J. Charlton, S. J. Clark,     |
 |  R. J. Clements, G. C. Constantinescu, F. Corsetti,           |
 |  N. Corsini, O. Dieguez, S. M. M. Dubois, K. K. B. Duff,      |
 |  J. M. Escartin, M. Escobar Azor, A. Greco,                   |
 |  H. Helal, Q. O. Hill, L. P. Lee, J.-H. Li,                   |
 |  E. B. Linscott, G. Moynihan, D. D. O`Regan,                  |
 |  O. K. Okan, M. J. S. Phipps, C. J. Pickard,                  |
 |  J. C. A. Prentice, M. I. J. Probert, L. E. Ratcliff,         |
 |  M. Robinson, A. Ruiz Serrano, M. dos Santos Dias,            |
 |  J. S. Spencer, E. W. Tait, G. Teobaldi, D. Turban,           |
 |  V. Vitale, K. A. Wilkinson, C. Weber, J. C. Womack,          |
 |  N. Yeung and T. J. Zuehlsdorff                               |
 |                                                               |
 |                                   Copyright (c) 2004-2023     |
 |                                                               |
 |  Please cite:                                                 |
 |  "The ONETEP linear-scaling density functional theory program"|
 |   J. Chem. Phys. 152(17) 174111 (2020)                        |
 |                                                               |
 |          in all publications arising from your use of ONETEP. |
 |                                                               |
 +---------------------------------------------------------------+
 |                                                               |
 |   ONETEP is based on developments described in the following  |
 |   publications:                                               |
 |                                                               |
 |  "Nonorthogonal generalized Wannier function pseudopotential  |
 |   plane-wave method".                                         |
 |   C.-K. Skylaris, A. A. Mostofi, P. D. Haynes, O. Dieguez,    |
 |   M. C. Payne.                                                |
 |   Phys. Rev. B 66 035119 (2002).                              |
 |                                                               |
 |  "Preconditioned iterative minimization for linear-scaling    |
 |   electronic structure calculations".                         |
 |   A. A. Mostofi, P. D. Haynes, C.-K. Skylaris, M. C. Payne.   |
 |   J. Chem. Phys. 119(17), pp.8842-8848 (2003).                |
 |                                                               |
 |  "Total-energy calculations on a real space grid with         |
 |   localized functions and a plane-wave basis".                |
 |   A. A. Mostofi, C.-K. Skylaris, P. D. Haynes, M. C. Payne.   |
 |   Comput. Phys. Commun. 147, pp.788-802 (2002).               |
 |                                                               |
 |  "Accurate kinetic energy evaluation in electronic structure  |
 |   calculations with localized functions on real space grids"  |
 |   C.-K. Skylaris, A. A. Mostofi, P. D. Haynes, C. J. Pickard, |
 |   M. C. Payne.                                                |
 |   Comput. Phys. Commun. 140, pp.315-322 (2001).               |
 |                                                               |
 |  "Accurate ionic forces and geometry optimization in linear-  |
 |   scaling density-functional theory with local orbitals"      |
 |   N. D. M. Hine, M. Robinson, P. D. Haynes, C.-K. Skylaris,   |
 |   M. C. Payne, and A. A. Mostofi.                             |
 |   Phys. Rev. B 83 195102 (2011).                              |
 |                                                               |
 +---------------------------------------------------------------+

Job started: 23-10-2023 09:44 (+0100)
 
Reading parameters from file "graphite.dat" ...... done

If your calculation crashes here, before "Checking processes and threads..."
is displayed, then your stack size is insufficient.
If so, use "ulimit -s unlimited" at runtime.
You can disable this check with "check_stack_size F".

Checking processes and threads...
   Determining the default number of threads...
      No default threads set at compilation time: defaulting to 1.
      OpenMP library call suggests 8 threads.
      Hybrid MPI-OpenMP compilation detected.
      Number of MPI processes > 1.
      OMP_NUM_THREADS environment variable present and
      its value matches the one obtained from the OpenMP library call.
      Using this value as default.
      Default threads: 8
      Default applies to threads_max and threads_num_fftboxes.
      Settings in the input file override this default.
   ... done

   Running with 128 MPI processes.
   There are 16 MPI processes running on the same node as the root process.
   Each MPI process is using: 
               1 threads for simulation cell FFTs.
               1 threads for parallel FFT box operations.
               8 threads for loops over batched FFT box operations.
               8 threads in other parallel regions.
   MPI Interface: S1 (use mpi_f08) (-DMPI -DUSE_MPI_F08).
   MPI_ASYNC_PROTECTS_NONBLOCKING: Yes. MPI_SUBARRAYS_SUPPORTED: Yes.
   GPU Interface: None.
... done

Basic input checks...
Resetting ngwf_cg_rotate to TRUE for EDFT calculations
... done

Reading geometry and species blocks from file "graphite.dat" ...
  Reading POSITIONS geometry from str.xyz

  <species_atomic_set> block not found: NGWF initialisation set to SOLVE
IS: Dielectric excluded regions:
    - NONE.
IS: Assigning soft sphere radii for soft sphere solvation...
IS: No soft sphere radii specified. Default Alvarez radii used for all atoms.

----------- SOFT SPHERE RADII -----------
Li  5.333
C   4.442
-----------------------------------------

    
  Number of PPD points along a3 set to 1.  This is 
  the default value, it may have been provided also in the input file.
... done


--------------------------------------------------------------------------------
---------------------------------- INPUT FILE ----------------------------------
--------------------------------------------------------------------------------

task geometryoptimization                                                       
geom_method LBFGS                                                               
geom_continuation T                                                             
write_xyz T                                                                     
edft_grand_canonical T                                                          
edft_reference_potential  -4.42 eV                                              
edft_electrode_potential -0.1 V                                                 
edft_nelec_thres 0.000001                                                       
is_dielectric_function soft_sphere                                              
is_implicit_solvent T                                                           
is_smeared_ion_rep T                                                            
is_include_apolar T                                                             
is_solvation_properties F                                                       
is_pbe                    full                                                  
is_pbe_temperature        298.15                                                
is_pbe_bc_debye_screening T                                                     
is_pbe_neutralisation_scheme counterions_auto                                   
is_pbe_energy_tolerance 1E+50                                                   
is_bc_coarseness 5                                                              
is_bc_threshold 1E-9                                                            
is_bulk_permittivity 90.7                                                       
is_solvent_surf_tension 0.0506 N/m                                              
%block sol_ions                                                                 
Li  +1 1.0                                                                      
PF6 -1 1.0                                                                      
%endblock sol_ions                                                              
is_steric_pot_type M                                                            
is_hc_steric_dens_isovalue  0.001                                               
is_hc_steric_smearing         0.4 bohr                                          
is_steric_write T                                                               
%block species_solvent_radius                                                   
Li 3.0                                                                          
C 3.0                                                                           
%endblock species_solvent_radius                                                
multigrid_bc:   P P P                                                           
ion_ion_bc:     P P P                                                           
pspot_bc:       P P P                                                           
smeared_ion_bc: P P P                                                           
mg_max_iters_vcycle 500                                                         
mg_vcyc_smoother_iter_pre 4                                                     
mg_vcyc_smoother_iter_post 4                                                    
mg_max_res_ratio 1000.0                                                         
mg_max_iters_newton 300                                                         
edft                    : T                                                     
edft_smearing_width     : 0.1 eV                                                
spin                    : 0.0                                                   
edft_spin_fix           : 2                                                     
spin_polarized          : T                                                     
cutoff_energy :  1000 eV                                                        
kernel_cutoff : 1000 bohr                                                       
xc_functional PBE                                                               
dispersion 4                                                                    
output_detail VERBOSE                                                           
do_properties T                                                                 
cube_format F                                                                   
dx_format F                                                                     
write_denskern T                                                                
write_tightbox_ngwfs T                                                          
write_hamiltonian T                                                             
%block species                                                                  
Li Li 3  5  8.0                                                                 
C  C  6  4  8.0                                                                 
%endblock species                                                               
%block species_pot                                                              
Li '/work/e89/e89/arihant/pseudo/Li.usp'                                        
C '/work/e89/e89/arihant/pseudo/C.usp'                                          
%endblock species_pot                                                           
%BLOCK LATTICE_CART                                                             
ang                                                                             
34.16920551     0.00000000     0.00000000                                       
0.00000000    19.72760000     0.00000000                                        
0.00000000     0.00000000   100.02798000                                        
%ENDBLOCK LATTICE_CART                                                          
positions_xyz_file str.xyz                                                      
     Hash =   000003741536981037204736

--------------------------------------------------------------------------------
-------------------------------- END INPUT FILE --------------------------------
--------------------------------------------------------------------------------


 
 ESDF WARNING(1): "ispbeenergytolerance" (esdf_physical) has no units. Assume "hartree".
<<<<<<<<<<<<<<<<<<<<<<<<<<<<<<<<< Full system >>>>>>>>>>>>>>>>>>>>>>>>>>>>>>>>>>
<<<<<<<<<<<<<<<<<<<<<<<<< Pseudopotential information >>>>>>>>>>>>>>>>>>>>>>>>>>
File: /work/e89/e89/arihant/pseudo/Li.usp [ 2001 points up to Gmax=  52.9 (1/bohr)]
  Atomic number:  3;  ionic charge:  3.000000
    Shell 1: l = 0; rc = 1.19 bohr
    Shell 2: l = 0; rc = 1.25 bohr
File: /work/e89/e89/arihant/pseudo/C.usp [ 2001 points up to Gmax=  52.9 (1/bohr)]
  Atomic number:  6;  ionic charge:  4.000000
    Shell 1: l = 0; rc = 1.19 bohr
  Core charge supplied for Nonlinear Core Corrections
<<<<<<<<<<<<<<<<<<<<<<<<<<<<<<<<<<<<<<<<>>>>>>>>>>>>>>>>>>>>>>>>>>>>>>>>>>>>>>>>

-------------------------- Atom counting information ---------------------------
Symbol    Natoms    Nngwfs    Nprojs
  Li         3        15         6
  C        512      2048       512
.......   ......    ......    ......
Totals:    515      2063       518
--------------------------------------------------------------------------------

=============================== PSINC grid sizes ===============================
                      Simulation cell:  143 x  91 x 416
                              FFT-box:  117 x  91 x 117
                                  PPD:   11 x   7 x   1
Grid space d1=  0.451541543008a0 (KE cutoff=  37.25706Eh =1013.81618eV)
Grid space d2=  0.409667706512a0 (KE cutoff=  45.26271Eh =1231.66098eV)
Grid space d3=  0.454388192297a0 (KE cutoff=  36.79171Eh =1001.15326eV)
================================================================================
  
WARNING in cell_grid_distribute:
Average of less than one 23-slab per proc, so workload cannot be
equally balanced between procs.

********************* Fourier parallelisation information **********************
       Coarse grid (whole simulation cell) dimensions:    143    91   416
          Real-space ('12') slabs/proc (min max mean):      3     4     3
         Recip-space ('23') slabs/proc (min max mean):      0     1     0
********************************************************************************

********************* Fourier parallelisation information **********************
       Double grid (whole simulation cell) dimensions:    286   182   832
          Real-space ('12') slabs/proc (min max mean):      6     7     6
         Recip-space ('23') slabs/proc (min max mean):      1     2     1
********************************************************************************

********************* Fourier parallelisation information **********************
         Fine grid (whole simulation cell) dimensions:    288   184   832
          Real-space ('12') slabs/proc (min max mean):      6     7     6
         Recip-space ('23') slabs/proc (min max mean):      1     2     1
         Grid scale modified to satisfy multigrid solver grid constraints
         Grid scale values after modifification:         2.01  2.02  2.00
********************************************************************************
ONETEP fine grid is 288 x 184 x 832 gridpoints, 64.5704 x 37.2798 x 189.0255 bohr.
FD multigrid is     288 x 184 x 832 gridpoints, 64.5704 x 37.2798 x 189.0255 bohr.


Atom SCF Calculation for Li : Z (AE atom) =   3 : Z (PS atom) =   3
Config String:
Orbitals (num,occ):  3     2.00 1.00 0.00
Orbitals   (num,l):  3        0    0    1
Real-space Grid (nr,dr,rmax): 1343    0.0059612519    8.0000000000
Spherical Bessel Basis (nsws,lmax,cutoff):   37    1  220.4959463253
Confining potential (l,width,scale):  0    3.0000000000  100.0000000000
Confining potential (l,width,scale):  1    3.0000000000  100.0000000000
  1         -3.7050169094   -5.2301177776    2.5388568852   -0.9989538802
  2         -6.0510920273   -4.2679357854    3.2724001845   -1.3422946715
  3         -6.7975021434   -3.8722499620    3.6648237887   -1.5325279919
  4         -7.0147472228   -3.7673066376    3.7864613280   -1.5966989055
  5         -7.0774132854   -3.7446783348    3.8157063634   -1.6161454686
  6         -7.0951992563   -3.7420177453    3.8204515040   -1.6217593843
  7         -7.1001226024   -3.7430426481    3.8200527077   -1.6233132433
  8         -7.1014239576   -3.7441529610    3.8191274553   -1.6237164860
  9         -7.1017352306   -3.7448434699    3.8184905098   -1.6238077213
 10         -7.1017916056   -3.7452114113    3.8181373932   -1.6238209669
 11         -7.1017908912   -3.7453946820    3.8179578223   -1.6238181917
 12         -7.1017822190   -3.7454828903    3.8178702968   -1.6238141227
 13         -7.1017768840   -3.7455162316    3.8178369316   -1.6238119017
 14         -7.1017732849   -3.7455353767    3.8178176959   -1.6238104459
 15         -7.1017709700   -3.7455463461    3.8178066371   -1.6238095253
 16         -7.1017695244   -3.7455526225    3.8178002910   -1.6238089565
 17         -7.1017686390   -3.7455562110    3.8177966534   -1.6238086105
 18         -7.1017681040   -3.7455582619    3.8177945697   -1.6238084022
 19         -7.1017677838   -3.7455594341    3.8177933764   -1.6238082778
 20         -7.1017675934   -3.7455601042    3.8177926929   -1.6238082039
 21         -7.1017674808   -3.7455604874    3.8177923014   -1.6238081602
 22         -7.1017674145   -3.7455607066    3.8177920771   -1.6238081344
Atom SCF converged after  22 iterations to a total energy of     -7.10176741

Atom SCF Calculation for C  : Z (AE atom) =   6 : Z (PS atom) =   4
Config String:
Orbitals (num,occ):  2     2.00 2.00
Orbitals   (num,l):  2        0    1
Real-space Grid (nr,dr,rmax): 1343    0.0059612519    8.0000000000
Spherical Bessel Basis (nsws,lmax,cutoff):   37    1  220.4959463253
Confining potential (l,width,scale):  0    3.0000000000  100.0000000000
Confining potential (l,width,scale):  1    3.0000000000  100.0000000000
  1         -5.8177092822   -1.2555419264    4.5135233515   -1.7471920893
  2         -5.6032261188   -1.3440047989    4.4246587726   -1.7090653419
  3         -5.5936068668   -1.3561735374    4.4140765627   -1.7034094417
  4         -5.5958505747   -1.3587284552    4.4121342699   -1.7022848669
  5         -5.5969687665   -1.3601698222    4.4109982405   -1.7017057890
  6         -5.5975400979   -1.3609792837    4.4103423276   -1.7013975981
  7         -5.5978435204   -1.3614297943    4.4099696476   -1.7012314972
  8         -5.5980096069   -1.3616786122    4.4097605138   -1.7011416075
  9         -5.5981021113   -1.3618152853    4.4096441572   -1.7010929151
 10         -5.5981539939   -1.3618900852    4.4095797860   -1.7010665406
 11         -5.5981831160   -1.3619309228    4.4095443105   -1.7010522599
 12         -5.5981994243   -1.3619531807    4.4095248124   -1.7010445305
 13         -5.5982085235   -1.3619652972    4.4095141175   -1.7010403487
 14         -5.5982135796   -1.3619718867    4.4095082606   -1.7010380870
 15         -5.5982163780   -1.3619754676    4.4095050573   -1.7010368642
 16         -5.5982179208   -1.3619774123    4.4095033073   -1.7010362032
 17         -5.5982187685   -1.3619784678    4.4095023522   -1.7010358460
 18         -5.5982192328   -1.3619790404    4.4095018314   -1.7010356530
 19         -5.5982194864   -1.3619793509    4.4095015476   -1.7010355488
 20         -5.5982196245   -1.3619795192    4.4095013931   -1.7010354925
 21         -5.5982196995   -1.3619796104    4.4095013090   -1.7010354621
Atom SCF converged after  21 iterations to a total energy of     -5.59821970

BC: Task: GEOMETRYOPTIMIZATION
BC: +++++++++++++++ Summary of boundary conditions ++++++++++++++
BC: |       Component       |     Keyword     |   Periodicity   |
BC: |                       |                 |     X  Y  Z [1] |
BC: |-----------------------------------------------------------|
BC: | Ion-ion               | ion_ion_bc [2]  |     P  P  P     |
BC: | Local pseudopotential | pspot_bc [3]    |     P  P  P     |
BC: | Multigrid solver      | multigrid_bc    |     P  P  P     |
BC: | Smeared ions          | smeared_ion_bc  |     P  P  P     |
BC: | Van der Waals         | vdw_bc          |     P  P  P     |
BC: +++++++++++++++++++++++++++++++++++++++++++++++++++++++++++++
BC: P: Periodic, O: Open.
BC: [1] Not strictly along X, Y, Z but rather along lattice vectors A1, A2, A3.
BC: [2] Also affected by: pbc_correction_cutoff, cutoff_coulomb_type,
BC:     is_smeared_ion_rep, is_implicit_solvent, openbc_ion_ion.
BC: [3] Also affected by: is_smeared_ion_rep, is_implicit_solvent, openbc_pspot.

================================================================================
<<<<<<<<<<<<<<<< Resuming previous ONETEP Geometry Optimisation >>>>>>>>>>>>>>>>
================================================================================

 Geometry Optimisation: output file is "graphite.geom"
 
 Reading continuation file "graphite.continuation" ...done
 Geometry Optimisation: read_tightbox_ngwfs parameter over-ridden to TRUE
 Geometry Optimisation: read_hamiltonian parameter over-ridden to T
 
                           -------------------------------
                                     Cell Contents
                           -------------------------------
 
            xxxxxxxxxxxxxxxxxxxxxxxxxxxxxxxxxxxxxxxxxxxxxxxxxxxxxxxxxxxx
            x  Element    Atom      Absolute co-ordinates of atoms     x
            x            Number        x           y           z       x
            x----------------------------------------------------------x
            x    Li        1       12.045889    5.618126   16.072156   x
            x    Li        2       12.314483   12.827732   16.098385   x
            x    Li        3       13.298996    8.868735   25.469707   x
            x    C         4       20.250940    6.854716    6.379210   x
            x    C         5       17.562534    6.854456    6.384730   x
            x    C         6       21.597742    9.185091    6.378486   x
            x    C         7       16.215619    9.184986    6.385773   x
            x    C         8       13.526836    9.184945    6.399461   x
            x    C         9       17.562542   11.515557    6.378272   x
            x    C        10       20.250988   11.515452    6.376894   x
            x    C        11       52.536618   25.494884    6.358603   x
            x    C        12       49.847709   25.494779    6.357005   x
            x    C        13       53.883839   27.824798    6.361049   x
            x    C        14       48.500441   27.824702    6.352571   x
            x    C        15       45.811459   27.824632    6.361972   x
            x    C        16       49.847781   30.154688    6.354898   x
            x    C        17       52.536660   30.154689    6.359166   x
            x    C        18       20.250695    2.194182    6.392930   x
            x    C        19       17.562340    2.193880    6.396788   x
            x    C        20       16.215408    4.524093    6.392141   x
            x    C        21       24.286056    4.524467    6.388815   x
            x    C        22       13.526833    4.523890    6.402558   x
            x    C        23       21.597669    4.524298    6.384945   x
            x    C        24       25.632903    6.854700    6.391053   x
            x    C        25       12.179474    6.854333    6.408764   x
            x    C        26       24.286081    9.185045    6.385278   x
            x    C        27       12.179434   11.515537    6.399431   x
            x    C        28       13.526786   13.846055    6.385979   x
            x    C        29       21.597729   13.845763    6.385236   x
            x    C        30       16.215402   13.845933    6.378551   x
            x    C        31       17.562327   16.176216    6.385720   x
            x    C        32       20.250745   16.175875    6.390362   x
            x    C        33       52.536461   20.835065    6.383089   x
            x    C        34       49.847596   20.834856    6.384841   x
            x    C        35       48.500400   23.164812    6.370345   x
            x    C        36       56.572452   23.165134    6.381159   x
            x    C        37       45.811477   23.164759    6.380861   x
            x    C        38       53.883765   23.164962    6.372039   x
            x    C        39       57.919615   25.495044    6.383897   x
            x    C        40       44.464202   25.494727    6.374887   x
            x    C        41       56.572571   27.824871    6.374971   x
            x    C        42       44.464226   30.154615    6.368316   x
            x    C        43       45.811507   32.484576    6.370615   x
            x    C        44       53.883851   32.484589    6.375442   x
            x    C        45       48.500473   32.484585    6.364208   x
            x    C        46       49.847732   34.814515    6.379857   x
            x    C        47       52.536619   34.814439    6.384352   x
            x    C        48       12.179653    2.193667    6.414358   x
            x    C        49       28.321365    2.194369    6.408515   x
            x    C        50       25.632959    2.194301    6.400371   x
            x    C        51       28.321365    6.854765    6.404269   x
            x    C        52        9.490760    6.854458    6.424141   x
            x    C        53        8.143433    9.184905    6.429503   x
            x    C        54       25.632928   11.515364    6.396221   x
            x    C        55        9.490704   11.515411    6.416794   x
            x    C        56        8.143623   13.845799    6.419565   x
            x    C        57       24.286091   13.845580    6.395801   x
            x    C        58        9.491094   16.176082    6.411240   x
            x    C        59       12.179525   16.176337    6.395704   x
            x    C        60       13.526830   18.506350    6.402796   x
            x    C        61       21.597642   18.505880    6.408780   x
            x    C        62       48.500355   18.504952    6.405402   x
            x    C        63       56.572297   18.505315    6.404359   x
            x    C        64       16.215133   18.506139    6.398502   x
            x    C        65       53.883573   18.505130    6.401327   x
            x    C        66       44.464243   20.834834    6.403076   x
            x    C        67       60.608031   20.835476    6.406775   x
            x    C        68       57.919437   20.835232    6.396696   x
            x    C        69       60.608191   25.495165    6.400512   x
            x    C        70       41.775326   25.494740    6.392909   x
            x    C        71       40.428165   27.824669    6.394668   x
            x    C        72       57.919699   30.154715    6.389748   x
            x    C        73       41.775366   30.154611    6.384637   x
            x    C        74       40.428206   32.484555    6.395851   x
            x    C        75       56.572528   32.484490    6.389534   x
            x    C        76       41.775441   34.814524    6.398603   x
            x    C        77       44.464289   34.814531    6.387548   x
            x    C        78       45.811599   37.144496    6.400954   x
            x    C        79       53.883772   37.144349    6.406030   x
            x    C        80       16.215188   37.143738    6.409978   x
            x    C        81       24.285982   37.144108    6.406831   x
            x    C        82       48.500494   37.144420    6.397062   x
            x    C        83       21.597612   37.143875    6.405119   x
            x    C        84       33.703899    2.194492    6.426076   x
            x    C        85       41.775558    2.194686    6.425791   x
            x    C        86       49.847721    2.194636    6.415921   x
            x    C        87       36.392480    2.194617    6.429139   x
            x    C        88       44.464396    2.194685    6.420159   x
            x    C        89       52.536534    2.194501    6.418064   x
            x    C        90        9.491209    2.193889    6.428000   x
            x    C        91       29.668351    4.524526    6.411892   x
            x    C        92        8.143731    4.524063    6.431881   x
            x    C        93       32.356880    4.524588    6.423702   x
            x    C        94       33.703927    6.854729    6.434652   x
            x    C        95       29.668344    9.185036    6.416001   x
            x    C        96       32.356865    9.184945    6.431872   x
            x    C        97        5.454879    9.184908    6.441099   x
            x    C        98        4.108105   11.515209    6.440541   x
            x    C        99       28.321386   11.515321    6.411848   x
            x    C       100       29.668413   13.845446    6.427380   x
            x    C       101        0.072898   13.845378    6.438390   x
            x    C       102        5.455168   13.845485    6.432800   x
            x    C       103       52.536438   16.175122    6.416893   x
            x    C       104       25.632988   16.175695    6.413333   x
            x    C       105       60.607923   16.175467    6.424374   x
            x    C       106        4.108394   16.175728    6.432654   x
            x    C       107       28.321399   16.175536    6.426666   x
            x    C       108       49.847603   16.174958    6.420777   x
            x    C       109       57.919325   16.175299    6.420654   x
            x    C       110        1.419942   16.175493    6.434290   x
            x    C       111        5.455737   18.505666    6.431151   x
            x    C       112        0.073013   18.505616    6.426595   x
            x    C       113        8.144095   18.506149    6.422994   x
            x    C       114       24.286034   18.505649    6.417978   x
            x    C       115       45.811504   18.504907    6.415064   x
            x    C       116       61.954947   18.505493    6.419590   x
            x    C       117        1.420266   20.835434    6.428693   x
            x    C       118        9.491521   20.835857    6.428477   x
            x    C       119       17.562114   20.835928    6.416095   x
            x    C       120        4.108786   20.835645    6.433634   x
            x    C       121       12.179702   20.836104    6.420944   x
            x    C       122       20.250473   20.835644    6.418811   x
            x    C       123       41.775437   20.834863    6.418193   x
            x    C       124       61.955192   23.165309    6.409878   x
            x    C       125       40.428166   23.164838    6.412075   x
            x    C       126        0.073250   23.165374    6.423044   x
            x    C       127        1.420571   25.495130    6.432601   x
            x    C       128       61.955299   27.824906    6.413015   x
            x    C       129        0.073397   27.824960    6.429363   x
            x    C       130       37.739471   27.824712    6.413707   x
            x    C       131       36.392328   30.154622    6.417228   x
            x    C       132       60.608213   30.154650    6.408458   x
            x    C       133       61.955252   32.484430    6.425381   x
            x    C       134       32.356774   32.484415    6.428691   x
            x    C       135       37.739477   32.484509    6.410775   x
            x    C       136       20.250484   34.814108    6.417127   x
            x    C       137       57.919544   34.814307    6.410312   x
            x    C       138       28.321377   34.814216    6.423270   x
            x    C       139       36.392428   34.814425    6.418095   x
            x    C       140       60.608095   34.814197    6.424823   x
            x    C       141       17.562128   34.813865    6.420403   x
            x    C       142       25.632956   34.814144    6.420844   x
            x    C       143       33.703848   34.814288    6.424410   x
            x    C       144       37.739555   37.144380    6.421457   x
            x    C       145       32.356830   37.144233    6.422429   x
            x    C       146       40.428293   37.144476    6.414623   x
            x    C       147       56.572428   37.144135    6.415693   x
            x    C       148       13.526930   37.143491    6.418557   x
            x    C       149       29.668389   37.144107    6.418782   x
            x    C       150       57.919475    2.194314    6.433410   x
            x    C       151        4.108436    2.194186    6.447315   x
            x    C       152       60.608005    2.194248    6.440754   x
            x    C       153        1.419986    2.194293    6.450477   x
            x    C       154       37.739676    4.524635    6.439488   x
            x    C       155       45.811607    4.524705    6.434337   x
            x    C       156       53.883638    4.524506    6.434397   x
            x    C       157       40.428434    4.524705    6.439593   x
            x    C       158        0.072922    4.524290    6.450513   x
            x    C       159       48.500463    4.524609    6.431063   x
            x    C       160       56.572351    4.524377    6.438249   x
            x    C       161       61.954880    4.524363    6.449017   x
            x    C       162        5.455210    4.524374    6.443511   x
            x    C       163       60.607935    6.854513    6.448357   x
            x    C       164       41.775606    6.854736    6.450235   x
            x    C       165       49.847670    6.854656    6.442133   x
            x    C       166        4.108118    6.854568    6.446121   x
            x    C       167       36.392567    6.854728    6.444082   x
            x    C       168       44.464433    6.854712    6.446944   x
            x    C       169       52.536476    6.854588    6.441061   x
            x    C       170       57.919333    6.854571    6.446335   x
            x    C       171        1.419711    6.854630    6.451049   x
            x    C       172       56.572292    9.184782    6.444632   x
            x    C       173       37.739714    9.184831    6.454305   x
            x    C       174       45.811621    9.184761    6.451929   x
            x    C       175        0.072844    9.184852    6.448787   x
            x    C       176       40.428445    9.184797    6.456377   x
            x    C       177       48.500441    9.184725    6.447269   x
            x    C       178       53.883572    9.184730    6.444812   x
            x    C       179       61.954786    9.184793    6.448815   x
            x    C       180       33.703977   11.515110    6.444329   x
            x    C       181       60.607903   11.515067    6.442088   x
            x    C       182       52.536386   11.514875    6.440611   x
            x    C       183       36.392623   11.515001    6.453739   x
            x    C       184       44.464401   11.514855    6.453100   x
            x    C       185       49.847576   11.514844    6.444138   x
            x    C       186       57.919259   11.515040    6.441344   x
            x    C       187        1.419683   11.515117    6.445051   x
            x    C       188       37.739712   13.845064    6.456925   x
            x    C       189       56.572232   13.845188    6.430700   x
            x    C       190       32.356940   13.845280    6.441042   x
            x    C       191       40.428438   13.844902    6.455273   x
            x    C       192       45.811596   13.844847    6.444051   x
            x    C       193       53.883494   13.845013    6.431266   x
            x    C       194       61.954837   13.845283    6.436503   x
            x    C       195       48.500418   13.844905    6.436818   x
            x    C       196       33.703950   16.175367    6.449306   x
            x    C       197       36.392560   16.175158    6.452409   x
            x    C       198       41.775588   16.174949    6.444901   x
            x    C       199       44.464352   16.174910    6.435208   x
            x    C       200       29.668440   18.505490    6.440321   x
            x    C       201       32.356896   18.505373    6.446625   x
            x    C       202       37.739654   18.505122    6.446320   x
            x    C       203       40.428346   18.504993    6.437131   x
            x    C       204       25.633000   20.835510    6.434313   x
            x    C       205       36.392473   20.835045    6.441488   x
            x    C       206       28.321401   20.835357    6.441156   x
            x    C       207       33.703921   20.835245    6.447475   x
            x    C       208        5.456217   23.165368    6.440078   x
            x    C       209       13.526848   23.165724    6.433001   x
            x    C       210       21.597501   23.165422    6.433732   x
            x    C       211        8.144512   23.165623    6.439930   x
            x    C       212       32.356789   23.165091    6.445617   x
            x    C       213       16.214933   23.165601    6.429581   x
            x    C       214       24.285863   23.165280    6.438066   x
            x    C       215       29.668406   23.165188    6.447420   x
            x    C       216       37.739487   23.164929    6.428511   x
            x    C       217       28.321319   25.495019    6.446460   x
            x    C       218        9.491767   25.495277    6.447400   x
            x    C       219       17.562049   25.495254    6.439037   x
            x    C       220       36.392366   25.494875    6.426980   x
            x    C       221        4.109076   25.495212    6.441955   x
            x    C       222       12.179814   25.495374    6.443944   x
            x    C       223       20.250310   25.495131    6.438467   x
            x    C       224       25.632934   25.495076    6.445273   x
            x    C       225       33.703855   25.494912    6.439639   x
            x    C       226       24.285808   27.824800    6.442690   x
            x    C       227        5.456348   27.824900    6.450064   x
            x    C       228       13.526902   27.824910    6.446936   x
            x    C       229       32.356794   27.824728    6.438294   x
            x    C       230        8.144681   27.824911    6.451657   x
            x    C       231       16.214983   27.824870    6.442578   x
            x    C       232       21.597428   27.824856    6.441693   x
            x    C       233       29.668370   27.824790    6.444374   x
            x    C       234        1.420611   30.154728    6.441475   x
            x    C       235       28.321266   30.154601    6.439202   x
            x    C       236       20.250308   30.154583    6.436849   x
            x    C       237        4.109077   30.154604    6.449582   x
            x    C       238       12.179863   30.154501    6.447218   x
            x    C       239       17.562097   30.154472    6.439279   x
            x    C       240       25.632906   30.154538    6.439698   x
            x    C       241       33.703820   30.154553    6.430090   x
            x    C       242        5.456265   32.484382    6.452327   x
            x    C       243       24.285839   32.484342    6.429592   x
            x    C       244        0.073306   32.484461    6.439100   x
            x    C       245        8.144591   32.484199    6.449945   x
            x    C       246       13.526940   32.484108    6.439165   x
            x    C       247       21.597487   32.484297    6.429270   x
            x    C       248       29.668384   32.484362    6.432513   x
            x    C       249       16.215031   32.484153    6.432841   x
            x    C       250        1.420357   34.814293    6.447630   x
            x    C       251        4.108920   34.814133    6.450085   x
            x    C       252        9.491614   34.813943    6.441697   x
            x    C       253       12.179831   34.813745    6.432876   x
            x    C       254       61.955051   37.144122    6.439389   x
            x    C       255        0.073064   37.143990    6.446360   x
            x    C       256        5.455848   37.144098    6.447164   x
            x    C       257        8.144226   37.143651    6.438832   x
            x    C       258       41.775633   11.514885    6.458086   x
            x    C       259        9.491817   30.154552    6.452032   x
            x    C       260       13.547275    9.189478   12.435837   x
            x    C       261       45.833824   27.825177   12.516206   x
            x    C       262       14.901270    6.851765   12.413572   x
            x    C       263       10.849207    9.190012   12.458119   x
            x    C       264       14.900795   11.528353   12.398046   x
            x    C       265       47.180089   25.496538   12.518320   x
            x    C       266       43.146543   27.825146   12.525417   x
            x    C       267       47.180302   30.153951   12.515958   x
            x    C       268       17.592370    6.857787   12.447520   x
            x    C       269       18.932630    9.191392   12.466311   x
            x    C       270       17.591854   11.524426   12.431628   x
            x    C       271       13.551582   13.871288   12.285890   x
            x    C       272       49.867612   25.497024   12.515704   x
            x    C       273       51.214379   27.826284   12.515268   x
            x    C       274       49.867752   30.154888   12.514624   x
            x    C       275       45.834265   32.482827   12.522654   x
            x    C       276       13.553195    4.509312   12.321645   x
            x    C       277       18.934347    4.527818   12.466379   x
            x    C       278        9.494108    6.851488   12.430093   x
            x    C       279       21.619418    9.192144   12.493880   x
            x    C       280        9.495683   11.529685   12.443798   x
            x    C       281       18.931907   13.856152   12.439069   x
            x    C       282       45.833782   23.167250   12.528047   x
            x    C       283       51.214481   23.167961   12.523689   x
            x    C       284       41.799987   25.496277   12.534027   x
            x    C       285       53.902696   27.827542   12.520543   x
            x    C       286       41.800237   30.154038   12.529436   x
            x    C       287       51.214935   32.484143   12.523036   x
            x    C       288       17.589919    2.194730   12.467410   x
            x    C       289       10.844771    4.508286   12.324174   x
            x    C       290       21.622077    4.530634   12.502131   x
            x    C       291       22.965963    6.861581   12.512229   x
            x    C       292       22.964087   11.523233   12.506883   x
            x    C       293       21.619065   13.854009   12.487290   x
            x    C       294       10.843735   13.870792   12.322680   x
            x    C       295       17.587198   16.189647   12.427188   x
            x    C       296       14.899641   16.202139   12.366415   x
            x    C       297       49.867925   20.837778   12.531852   x
            x    C       298       43.146256   23.166942   12.537530   x
            x    C       299       53.902931   23.169051   12.525483   x
            x    C       300       55.250548   25.498962   12.525938   x
            x    C       301       55.250866   30.156889   12.528392   x
            x    C       302       53.903294   32.485509   12.528061   x
            x    C       303       43.146746   32.482896   12.529943   x
            x    C       304       49.868715   34.813363   12.529349   x
            x    C       305       47.180920   34.812194   12.530769   x
            x    C       306       14.902547    2.180747   12.416774   x
            x    C       307       22.969029    2.200445   12.526355   x
            x    C       308       25.657489    2.200261   12.538414   x
            x    C       309       27.002736    4.530592   12.542036   x
            x    C       310       25.654793    6.861320   12.533321   x
            x    C       311       25.653065   11.522210   12.533838   x
            x    C       312        6.808269   11.525617   12.501465   x
            x    C       313       22.964800   16.184379   12.518713   x
            x    C       314       21.619303   18.514757   12.522198   x
            x    C       315       18.930969   18.517504   12.492027   x
            x    C       316       47.180091   20.837612   12.536482   x
            x    C       317       55.250407   20.839684   12.534256   x
            x    C       318       57.939199   20.842012   12.537752   x
            x    C       319       59.286714   23.172124   12.539751   x
            x    C       320       57.939390   25.500823   12.533383   x
            x    C       321       57.939622   30.158396   12.537956   x
            x    C       322       39.112350   30.154739   12.540939   x
            x    C       323       55.251106   34.815295   12.539730   x
            x    C       324       53.904228   37.144807   12.543062   x
            x    C       325       51.215853   37.143383   12.540926   x
            x    C       326       55.251391    2.195642   12.553642   x
            x    C       327       31.039223    2.198450   12.551447   x
            x    C       328       49.869627    2.193538   12.548856   x
            x    C       329       29.691870    4.529323   12.549177   x
            x    C       330       31.038516    6.859290   12.556101   x
            x    C       331        6.806054    6.857500   12.502820   x
            x    C       332       29.690541    9.190044   12.554370   x
            x    C       333       27.000924    9.191637   12.543565   x
            x    C       334        5.466883    9.192047   12.535319   x
            x    C       335       27.000211   13.852284   12.547445   x
            x    C       336        5.468251   13.858491   12.505729   x
            x    C       337       57.939080   16.181559   12.549488   x
            x    C       338       55.250587   16.179089   12.548833   x
            x    C       339       25.653520   16.182839   12.542940   x
            x    C       340        9.498227   16.204160   12.403481   x
            x    C       341       45.834125   18.507173   12.549408   x
            x    C       342       51.214785   18.507764   12.541934   x
            x    C       343       61.973981   18.515114   12.554734   x
            x    C       344       53.903324   18.508997   12.539773   x
            x    C       345       59.285997   18.512633   12.547401   x
            x    C       346       10.855179   18.527299   12.438246   x
            x    C       347       13.544756   18.527199   12.423016   x
            x    C       348       22.966353   20.843909   12.549894   x
            x    C       349       63.320775   20.845277   12.558196   x
            x    C       350       17.582920   20.846853   12.513028   x
            x    C       351       61.974620   23.174132   12.549331   x
            x    C       352       63.322068   25.503526   12.557025   x
            x    C       353       39.112180   25.496343   12.546380   x
            x    C       354       61.975169   27.831865   12.552021   x
            x    C       355       59.287173   27.830097   12.541398   x
            x    C       356       37.765184   27.825817   12.546497   x
            x    C       357       59.287089   32.487760   12.548766   x
            x    C       358       37.765098   32.484359   12.545501   x
            x    C       359       25.658373   34.819950   12.548561   x
            x    C       360       22.970394   34.820526   12.546740   x
            x    C       361       57.939699   34.816535   12.547091   x
            x    C       362       41.800304   34.812532   12.539610   x
            x    C       363       13.547095   37.137439   12.470999   x
            x    C       364       18.935218   37.147632   12.518056   x
            x    C       365       29.692653   37.148229   12.549165   x
            x    C       366       21.623825   37.150110   12.531612   x
            x    C       367       27.004376   37.149516   12.547052   x
            x    C       368       43.146784   37.142272   12.546623   x
            x    C       369       45.834778   37.141946   12.541513   x
            x    C       370        9.497908    2.177720   12.436458   x
            x    C       371        6.812433    2.192723   12.510941   x
            x    C       372       57.939766    2.196897   12.557163   x
            x    C       373       33.728256    2.196924   12.554042   x
            x    C       374       39.111586    2.194547   12.559271   x
            x    C       375       41.800108    2.193111   12.556567   x
            x    C       376       47.181490    2.192453   12.551342   x
            x    C       377        5.466440    4.525397   12.520831   x
            x    C       378       59.286200    4.528078   12.564696   x
            x    C       379       35.075311    4.526910   12.560810   x
            x    C       380       53.904724    4.525703   12.557195   x
            x    C       381       51.216426    4.524230   12.557767   x
            x    C       382       45.835044    4.522895   12.560475   x
            x    C       383       57.939591    6.858376   12.564093   x
            x    C       384       55.251399    6.856680   12.562958   x
            x    C       385       33.727801    6.857612   12.561235   x
            x    C       386       49.869962    6.854352   12.562863   x
            x    C       387       47.181754    6.853544   12.566502   x
            x    C       388       59.286044    9.189828   12.567394   x
            x    C       389       53.904650    9.186673   12.562611   x
            x    C       390       51.216522    9.185182   12.565196   x
            x    C       391        2.782086    9.192536   12.564389   x
            x    C       392       57.939252   11.520095   12.561314   x
            x    C       393       55.251019   11.517872   12.561100   x
            x    C       394       33.727299   11.517928   12.568003   x
            x    C       395       49.869648   11.515340   12.564192   x
            x    C       396       31.037737   11.519836   12.562139   x
            x    C       397        1.437555   11.524543   12.565459   x
            x    C       398       59.285820   13.851544   12.559190   x
            x    C       399       61.974040   13.854032   12.563341   x
            x    C       400       53.904080   13.847811   12.555119   x
            x    C       401       29.689878   13.850455   12.559245   x
            x    C       402       51.215795   13.846310   12.558733   x
            x    C       403        2.782502   13.856077   12.550321   x
            x    C       404       49.868790   16.176679   12.551674   x
            x    C       405       47.180738   16.176536   12.557402   x
            x    C       406       63.320137   16.185234   12.563022   x
            x    C       407       31.037505   16.180190   12.566184   x
            x    C       408        1.437341   16.187461   12.559061   x
            x    C       409        6.813367   16.191749   12.484182   x
            x    C       410       43.146217   18.506962   12.557770   x
            x    C       411       29.690039   18.510702   12.564309   x
            x    C       412       27.000922   18.512353   12.558256   x
            x    C       413        2.783348   18.517842   12.561139   x
            x    C       414        5.470699   18.520974   12.535956   x
            x    C       415       41.799882   20.837126   12.550962   x
            x    C       416       39.111656   20.836998   12.560391   x
            x    C       417       25.654696   20.842550   12.558446   x
            x    C       418        1.437789   20.847467   12.565953   x
            x    C       419        6.820338   20.849100   12.546774   x
            x    C       420        9.508166   20.852398   12.517993   x
            x    C       421       14.894376   20.850631   12.499607   x
            x    C       422       37.764774   23.167051   12.556174   x
            x    C       423       27.002160   23.171578   12.565384   x
            x    C       424        2.785715   23.176435   12.571790   x
            x    C       425       21.619862   23.173833   12.554576   x
            x    C       426       18.931105   23.174930   12.548710   x
            x    C       427       13.546321   23.178424   12.541543   x
            x    C       428       25.655877   25.501626   12.563740   x
            x    C       429       22.967850   25.502916   12.563216   x
            x    C       430        1.439015   25.505192   12.567647   x
            x    C       431       17.584440   25.504759   12.559385   x
            x    C       432       14.895752   25.505514   12.563229   x
            x    C       433       27.003402   27.830590   12.563836   x
            x    C       434       21.621763   27.832878   12.561227   x
            x    C       435       18.933101   27.833358   12.563451   x
            x    C       436       35.076270   27.826714   12.556593   x
            x    C       437       25.657417   30.160719   12.558558   x
            x    C       438       22.969620   30.161779   12.558944   x
            x    C       439        1.438961   30.161983   12.569784   x
            x    C       440       17.586082   30.162362   12.559383   x
            x    C       441       63.322105   30.160998   12.561899   x
            x    C       442       33.728315   30.156533   12.555743   x
            x    C       443       27.004498   32.489842   12.555641   x
            x    C       444       29.692427   32.488199   12.555375   x
            x    C       445       21.623152   32.491471   12.551355   x
            x    C       446       61.974787   32.489239   12.558159   x
            x    C       447       18.934427   32.491170   12.551630   x
            x    C       448       35.076156   32.485682   12.552629   x
            x    C       449       17.586599   34.819039   12.532856   x
            x    C       450       14.897439   34.814871   12.528761   x
            x    C       451       31.039549   34.817638   12.553312   x
            x    C       452       63.320763   34.818700   12.565998   x
            x    C       453       33.728521   34.816172   12.552078   x
            x    C       454       39.112090   34.813822   12.546802   x
            x    C       455       10.856753   37.136847   12.483428   x
            x    C       456       61.974141   37.147746   12.563128   x
            x    C       457       59.286421   37.146807   12.557122   x
            x    C       458       35.075808   37.145828   12.553922   x
            x    C       459       37.764877   37.144312   12.552592   x
            x    C       460        1.436363    2.198082   12.566949   x
            x    C       461       63.319742    2.198582   12.568662   x
            x    C       462       61.974101    4.529091   12.567647   x
            x    C       463        2.781187    4.529143   12.560231   x
            x    C       464       37.764371    4.525362   12.563826   x
            x    C       465       43.146746    4.523329   12.564495   x
            x    C       466       63.320292    6.860672   12.572974   x
            x    C       467       39.111193    6.855277   12.571837   x
            x    C       468       41.799832    6.854081   12.571143   x
            x    C       469        1.437077    6.860670   12.568516   x
            x    C       470       61.974198    9.191618   12.570943   x
            x    C       471       37.763927    9.185835   12.573618   x
            x    C       472       35.074935    9.187363   12.569352   x
            x    C       473       43.146624    9.184345   12.575131   x
            x    C       474       45.834984    9.184075   12.570609   x
            x    C       475       63.320481   11.523250   12.571334   x
            x    C       476       39.111072   11.515749   12.578067   x
            x    C       477       41.799751   11.515078   12.576407   x
            x    C       478       47.181481   11.514854   12.569200   x
            x    C       479       45.834669   13.845514   12.566465   x
            x    C       480       43.146431   13.845631   12.572866   x
            x    C       481       35.074728   13.847571   12.573187   x
            x    C       482       37.763939   13.846255   12.575739   x
            x    C       483       39.111179   16.176400   12.573638   x
            x    C       484       41.799755   16.176334   12.568608   x
            x    C       485       33.727160   16.178299   12.569901   x
            x    C       486       37.764403   18.507052   12.568578   x
            x    C       487       35.075064   18.508071   12.570716   x
            x    C       488       33.727411   20.838442   12.567229   x
            x    C       489       31.037831   20.840053   12.567904   x
            x    C       490       29.690622   23.170163   12.565981   x
            x    C       491       35.075644   23.167896   12.563839   x
            x    C       492        5.473729   23.177779   12.571178   x
            x    C       493       10.858332   23.178887   12.550458   x
            x    C       494       31.038643   25.499103   12.565814   x
            x    C       495        6.822156   25.506163   12.578015   x
            x    C       496        9.510611   25.506601   12.573524   x
            x    C       497       33.727903   25.497730   12.561675   x
            x    C       498       29.691596   27.828988   12.562792   x
            x    C       499        5.474526   27.834403   12.578018   x
            x    C       500        2.786464   27.833925   12.573988   x
            x    C       501       10.859647   27.833820   12.576418   x
            x    C       502       13.548211   27.833687   12.570343   x
            x    C       503       31.039272   30.157944   12.560032   x
            x    C       504        6.822533   30.162299   12.576999   x
            x    C       505        9.511094   30.161114   12.573956   x
            x    C       506       14.897265   30.161233   12.564966   x
            x    C       507       13.548289   32.487922   12.554121   x
            x    C       508       10.859851   32.487672   12.561831   x
            x    C       509        2.785658   32.490804   12.573717   x
            x    C       510        5.473615   32.489921   12.572797   x
            x    C       511        6.820517   34.817567   12.561259   x
            x    C       512        9.508880   34.813217   12.544121   x
            x    C       513        1.437426   34.818823   12.570702   x
            x    C       514        5.469813   37.144676   12.555277   x
            x    C       515        2.782536   37.148276   12.569880   x
            xxxxxxxxxxxxxxxxxxxxxxxxxxxxxxxxxxxxxxxxxxxxxxxxxxxxxxxxxxxx
 

LBFGS: continuation file name is "graphite.continuation"
 LBFGS: Restarting previous  geometry optimization.
 avg_mass=  21840.332759299767
 Enthalpy contributions:
                  total energy=  -2.73766292E+003 Eh
        diagonal pressure term=   0.00000000E+000 Eh
    off-diagonal pressure term=   0.00000000E+000 Eh
 LBFGS: finished iteration   0  with enthalpy= -2.737662923980E+003 Eh
  
 +-----------+-----------------+-----------------+------------+-----+ <-- LBFGS
 | Parameter |      value      |    tolerance    |    units   | OK? | <-- LBFGS
 +-----------+-----------------+-----------------+------------+-----+ <-- LBFGS
 |  dE/ion   |   0.000000E+000 |   1.000000E-006 |         Eh | No  | <-- LBFGS
 |  |F|max   |   1.860589E-003 |   2.000000E-003 |    Eh/Bohr | Yes | <-- LBFGS
 |  |dR|max  |   0.000000E+000 |   5.000000E-003 |       Bohr | No  | <-- LBFGS
 +-----------+-----------------+-----------------+------------+-----+ <-- LBFGS
  

================================================================================
 Starting LBFGS iteration    1 ...
================================================================================
 Writing xyz coordinates to file "graphite.xyz" ... done

 Writing continuation file "graphite.continuation" ...done
 Backing up NGWFs to file "graphite.tightbox_ngwfs.bfgs_back" ... done
 Backing up Hamiltonian to file "graphite.ham.bfgs_back" ... done
  
 +------------+-------------+-------------+-----------------+ <-- min LBFGS
 |    Step    |   lambda    |   F.delta   |    enthalpy     | <-- min LBFGS
 +------------+-------------+-------------+-----------------+ <-- min LBFGS
 |  previous  |    0.000000 |    0.000019 |    -2737.662924 | <-- min LBFGS
 +------------+-------------+-------------+-----------------+ <-- min LBFGS
  

--------------------------------------------------------------------------------
 LBFGS: starting iteration   1 with trial guess (lambda=    1.000000)
--------------------------------------------------------------------------------
 
                           -------------------------------
                                     Cell Contents
                           -------------------------------
 
            xxxxxxxxxxxxxxxxxxxxxxxxxxxxxxxxxxxxxxxxxxxxxxxxxxxxxxxxxxxx
            x  Element    Atom      Absolute co-ordinates of atoms     x
            x            Number        x           y           z       x
            x----------------------------------------------------------x
            x    Li        1       12.046701    5.619244   16.072671   x
            x    Li        2       12.313993   12.826966   16.098331   x
            x    Li        3       13.299032    8.868769   25.470845   x
            x    C         4       20.250935    6.854725    6.379190   x
            x    C         5       17.562524    6.854458    6.384652   x
            x    C         6       21.597722    9.185090    6.378483   x
            x    C         7       16.215614    9.184984    6.385662   x
            x    C         8       13.526820    9.184946    6.399316   x
            x    C         9       17.562531   11.515560    6.378200   x
            x    C        10       20.250985   11.515438    6.376865   x
            x    C        11       52.536586   25.494886    6.358607   x
            x    C        12       49.847645   25.494781    6.357010   x
            x    C        13       53.883788   27.824796    6.361054   x
            x    C        14       48.500421   27.824703    6.352574   x
            x    C        15       45.811419   27.824636    6.361983   x
            x    C        16       49.847717   30.154690    6.354901   x
            x    C        17       52.536628   30.154683    6.359172   x
            x    C        18       20.250689    2.194205    6.392927   x
            x    C        19       17.562329    2.193890    6.396739   x
            x    C        20       16.215396    4.524105    6.392045   x
            x    C        21       24.286055    4.524490    6.388845   x
            x    C        22       13.526817    4.523889    6.402422   x
            x    C        23       21.597653    4.524301    6.384952   x
            x    C        24       25.632886    6.854706    6.391088   x
            x    C        25       12.179454    6.854328    6.408607   x
            x    C        26       24.286086    9.185041    6.385300   x
            x    C        27       12.179417   11.515540    6.399299   x
            x    C        28       13.526777   13.846053    6.385871   x
            x    C        29       21.597707   13.845761    6.385224   x
            x    C        30       16.215394   13.845924    6.378466   x
            x    C        31       17.562321   16.176211    6.385649   x
            x    C        32       20.250736   16.175857    6.390328   x
            x    C        33       52.536432   20.835062    6.383105   x
            x    C        34       49.847548   20.834843    6.384864   x
            x    C        35       48.500379   23.164816    6.370362   x
            x    C        36       56.572454   23.165133    6.381177   x
            x    C        37       45.811444   23.164762    6.380885   x
            x    C        38       53.883718   23.164950    6.372048   x
            x    C        39       57.919608   25.495039    6.383918   x
            x    C        40       44.464213   25.494727    6.374909   x
            x    C        41       56.572574   27.824870    6.374987   x
            x    C        42       44.464236   30.154618    6.368333   x
            x    C        43       45.811473   32.484575    6.370632   x
            x    C        44       53.883801   32.484600    6.375459   x
            x    C        45       48.500451   32.484584    6.364221   x
            x    C        46       49.847681   34.814528    6.379878   x
            x    C        47       52.536587   34.814438    6.384374   x
            x    C        48       12.179622    2.193687    6.414245   x
            x    C        49       28.321359    2.194406    6.408555   x
            x    C        50       25.632932    2.194308    6.400410   x
            x    C        51       28.321375    6.854783    6.404312   x
            x    C        52        9.490728    6.854456    6.424014   x
            x    C        53        8.143426    9.184900    6.429394   x
            x    C        54       25.632910   11.515356    6.396250   x
            x    C        55        9.490677   11.515402    6.416669   x
            x    C        56        8.143615   13.845796    6.419459   x
            x    C        57       24.286088   13.845554    6.395819   x
            x    C        58        9.491075   16.176059    6.411130   x
            x    C        59       12.179500   16.176324    6.395588   x
            x    C        60       13.526830   18.506326    6.402695   x
            x    C        61       21.597625   18.505875    6.408775   x
            x    C        62       48.500328   18.504946    6.405434   x
            x    C        63       56.572295   18.505301    6.404386   x
            x    C        64       16.215124   18.506115    6.398423   x
            x    C        65       53.883535   18.505094    6.401352   x
            x    C        66       44.464238   20.834830    6.403108   x
            x    C        67       60.608056   20.835476    6.406820   x
            x    C        68       57.919423   20.835207    6.396727   x
            x    C        69       60.608223   25.495165    6.400547   x
            x    C        70       41.775322   25.494747    6.392939   x
            x    C        71       40.428198   27.824666    6.394696   x
            x    C        72       57.919690   30.154721    6.389773   x
            x    C        73       41.775361   30.154609    6.384664   x
            x    C        74       40.428235   32.484565    6.395880   x
            x    C        75       56.572529   32.484487    6.389559   x
            x    C        76       41.775438   34.814522    6.398636   x
            x    C        77       44.464287   34.814538    6.387575   x
            x    C        78       45.811579   37.144505    6.400986   x
            x    C        79       53.883726   37.144384    6.406060   x
            x    C        80       16.215174   37.143769    6.409941   x
            x    C        81       24.285974   37.144129    6.406866   x
            x    C        82       48.500464   37.144426    6.397092   x
            x    C        83       21.597600   37.143880    6.405144   x
            x    C        84       33.703879    2.194521    6.426109   x
            x    C        85       41.775551    2.194700    6.425825   x
            x    C        86       49.847691    2.194664    6.415956   x
            x    C        87       36.392491    2.194662    6.429170   x
            x    C        88       44.464373    2.194696    6.420193   x
            x    C        89       52.536504    2.194519    6.418095   x
            x    C        90        9.491184    2.193911    6.427910   x
            x    C        91       29.668326    4.524542    6.411937   x
            x    C        92        8.143717    4.524064    6.431791   x
            x    C        93       32.356888    4.524632    6.423740   x
            x    C        94       33.703907    6.854748    6.434684   x
            x    C        95       29.668325    9.185032    6.416046   x
            x    C        96       32.356876    9.184945    6.431907   x
            x    C        97        5.454861    9.184902    6.441048   x
            x    C        98        4.108116   11.515205    6.440513   x
            x    C        99       28.321401   11.515297    6.411887   x
            x    C       100       29.668389   13.845425    6.427417   x
            x    C       101        0.072908   13.845378    6.438429   x
            x    C       102        5.455151   13.845466    6.432739   x
            x    C       103       52.536415   16.175104    6.416920   x
            x    C       104       25.632956   16.175689    6.413357   x
            x    C       105       60.607933   16.175460    6.424426   x
            x    C       106        4.108403   16.175725    6.432631   x
            x    C       107       28.321401   16.175499    6.426697   x
            x    C       108       49.847571   16.174932    6.420809   x
            x    C       109       57.919300   16.175257    6.420692   x
            x    C       110        1.419927   16.175478    6.434317   x
            x    C       111        5.455712   18.505645    6.431122   x
            x    C       112        0.073026   18.505622    6.426646   x
            x    C       113        8.144076   18.506128    6.422919   x
            x    C       114       24.286022   18.505634    6.417995   x
            x    C       115       45.811480   18.504898    6.415099   x
            x    C       116       61.954941   18.505468    6.419647   x
            x    C       117        1.420255   20.835425    6.428745   x
            x    C       118        9.491492   20.835829    6.428425   x
            x    C       119       17.562125   20.835911    6.416064   x
            x    C       120        4.108776   20.835641    6.433655   x
            x    C       121       12.179674   20.836072    6.420874   x
            x    C       122       20.250476   20.835630    6.418809   x
            x    C       123       41.775431   20.834864    6.418226   x
            x    C       124       61.955200   23.165298    6.409925   x
            x    C       125       40.428193   23.164826    6.412105   x
            x    C       126        0.073264   23.165381    6.423098   x
            x    C       127        1.420551   25.495129    6.432646   x
            x    C       128       61.955307   27.824905    6.413050   x
            x    C       129        0.073406   27.824961    6.429397   x
            x    C       130       37.739478   27.824714    6.413737   x
            x    C       131       36.392353   30.154628    6.417257   x
            x    C       132       60.608247   30.154647    6.408489   x
            x    C       133       61.955255   32.484435    6.425408   x
            x    C       134       32.356762   32.484436    6.428715   x
            x    C       135       37.739484   32.484508    6.410807   x
            x    C       136       20.250492   34.814126    6.417154   x
            x    C       137       57.919524   34.814333    6.410343   x
            x    C       138       28.321354   34.814240    6.423300   x
            x    C       139       36.392448   34.814455    6.418127   x
            x    C       140       60.608125   34.814196    6.424851   x
            x    C       141       17.562131   34.813887    6.420416   x
            x    C       142       25.632922   34.814140    6.420879   x
            x    C       143       33.703827   34.814299    6.424439   x
            x    C       144       37.739553   37.144394    6.421490   x
            x    C       145       32.356826   37.144279    6.422460   x
            x    C       146       40.428303   37.144501    6.414657   x
            x    C       147       56.572425   37.144146    6.415721   x
            x    C       148       13.526915   37.143522    6.418495   x
            x    C       149       29.668348   37.144119    6.418818   x
            x    C       150       57.919441    2.194362    6.433439   x
            x    C       151        4.108441    2.194193    6.447322   x
            x    C       152       60.608024    2.194259    6.440782   x
            x    C       153        1.419984    2.194315    6.450508   x
            x    C       154       37.739663    4.524661    6.439514   x
            x    C       155       45.811599    4.524719    6.434369   x
            x    C       156       53.883600    4.524545    6.434424   x
            x    C       157       40.428419    4.524730    6.439620   x
            x    C       158        0.072940    4.524292    6.450550   x
            x    C       159       48.500429    4.524621    6.431095   x
            x    C       160       56.572341    4.524403    6.438273   x
            x    C       161       61.954856    4.524395    6.449053   x
            x    C       162        5.455198    4.524388    6.443482   x
            x    C       163       60.607940    6.854523    6.448392   x
            x    C       164       41.775596    6.854749    6.450257   x
            x    C       165       49.847655    6.854677    6.442160   x
            x    C       166        4.108130    6.854563    6.446107   x
            x    C       167       36.392566    6.854756    6.444104   x
            x    C       168       44.464395    6.854720    6.446969   x
            x    C       169       52.536451    6.854606    6.441083   x
            x    C       170       57.919294    6.854599    6.446363   x
            x    C       171        1.419699    6.854645    6.451076   x
            x    C       172       56.572283    9.184787    6.444654   x
            x    C       173       37.739698    9.184837    6.454320   x
            x    C       174       45.811619    9.184763    6.451952   x
            x    C       175        0.072855    9.184848    6.448825   x
            x    C       176       40.428420    9.184800    6.456394   x
            x    C       177       48.500407    9.184728    6.447293   x
            x    C       178       53.883541    9.184735    6.444832   x
            x    C       179       61.954752    9.184798    6.448860   x
            x    C       180       33.703960   11.515091    6.444356   x
            x    C       181       60.607905   11.515059    6.442133   x
            x    C       182       52.536363   11.514868    6.440632   x
            x    C       183       36.392621   11.514983    6.453756   x
            x    C       184       44.464365   11.514849    6.453123   x
            x    C       185       49.847563   11.514836    6.444163   x
            x    C       186       57.919222   11.515022    6.441378   x
            x    C       187        1.419664   11.515109    6.445073   x
            x    C       188       37.739700   13.845042    6.456940   x
            x    C       189       56.572225   13.845168    6.430728   x
            x    C       190       32.356951   13.845237    6.441072   x
            x    C       191       40.428421   13.844882    6.455292   x
            x    C       192       45.811585   13.844834    6.444081   x
            x    C       193       53.883461   13.844979    6.431293   x
            x    C       194       61.954809   13.845259    6.436556   x
            x    C       195       48.500386   13.844896    6.436848   x
            x    C       196       33.703929   16.175336    6.449328   x
            x    C       197       36.392569   16.175116    6.452428   x
            x    C       198       41.775577   16.174938    6.444928   x
            x    C       199       44.464326   16.174900    6.435240   x
            x    C       200       29.668399   18.505480    6.440348   x
            x    C       201       32.356899   18.505328    6.446647   x
            x    C       202       37.739651   18.505104    6.446341   x
            x    C       203       40.428352   18.504972    6.437158   x
[...]
 C    78 -- C   146       -0.08      0.00      5.38329
 C    43 -- C    74       -0.08      0.00      5.38330
 C    86 -- C    88       -0.08      0.00      5.38332
 C    15 -- C    71       -0.08      0.00      5.38332
 C   276 -- C   277       -0.08      0.00      5.38333
 C   453 -- C   454       -0.08      0.00      5.38333
 C    35 -- C    38       -0.08      0.00      5.38334
 C    34 -- C    66       -0.08      0.00      5.38334
 C    37 -- C   125       -0.08      0.00      5.38334
 C    44 -- C    45       -0.08      0.00      5.38336
 C    13 -- C    14       -0.08      0.00      5.38337
 C   388 -- C   399       -0.08      0.00      5.38338
 C    46 -- C    77       -0.08      0.00      5.38340
 C   371 -- C   512       -0.08      0.00      5.38340
 C   279 -- C   281       -0.08      0.00      5.38340
 C   385 -- C   467       -0.08      0.00      5.38341
 C   295 -- C   421       -0.08     -0.00      5.38344
 C    12 -- C    40       -0.08      0.00      5.38346
 C     8 -- C    53       -0.08      0.00      5.38348
 C   429 -- C   431       -0.08      0.00      5.38348
 C   444 -- C   448       -0.08      0.00      5.38349
 C    16 -- C    42       -0.08      0.00      5.38350
 C   302 -- C   357       -0.08      0.00      5.38351
 C   310 -- C   330       -0.08      0.00      5.38352
 C   299 -- C   319       -0.08      0.00      5.38353
 C   438 -- C   440       -0.08      0.00      5.38360
 C   348 -- C   350       -0.08      0.00      5.38361
 C   439 -- C   504       -0.08      0.00      5.38365
 C   322 -- C   442       -0.08      0.00      5.38373
 C   409 -- C   420       -0.08      0.00      5.38375
 C   360 -- C   449       -0.08      0.00      5.38379
 C   339 -- C   407       -0.08      0.00      5.38380
 C   394 -- C   476       -0.08      0.00      5.38380
 C   463 -- C   514       -0.08      0.00      5.38386
 C   294 -- C   347       -0.08     -0.00      5.38392
 C   483 -- C   485       -0.08      0.00      5.38393
 C   353 -- C   497       -0.08      0.00      5.38400
 C   416 -- C   488       -0.08     -0.00      5.38401
 C   285 -- C   355       -0.08      0.00      5.38421
 C   332 -- C   472       -0.08      0.00      5.38428
 C   403 -- C   414       -0.08      0.00      5.38429
 C   377 -- C   391       -0.08      0.00      5.38439
 C   311 -- C   396       -0.08      0.00      5.38442
 C   436 -- C   498       -0.08      0.00      5.38442
 C   336 -- C   391       -0.08      0.00      5.38445
 C   401 -- C   481       -0.08      0.00      5.38467
 C   411 -- C   487       -0.08      0.00      5.38471
 C   492 -- C   493       -0.08      0.00      5.38472
 C   490 -- C   491       -0.08      0.00      5.38472
 C   426 -- C   427       -0.08      0.00      5.38494
 C   435 -- C   502       -0.08     -0.00      5.38498
 C   499 -- C   501       -0.08     -0.00      5.38516
 C   432 -- C   496       -0.08      0.00      5.38529
 C   346 -- C   414       -0.08      0.00      5.38550
 C   260 -- C   269       -0.08      0.00      5.38566
 C   447 -- C   507       -0.08      0.00      5.38619
 C   508 -- C   510       -0.08      0.00      5.38624
 C   505 -- C   506       -0.08      0.00      5.38626
 C   420 -- C   421       -0.08      0.00      5.38651
 C   315 -- C   347       -0.08      0.00      5.38690
 C   455 -- C   514       -0.08      0.00      5.38754
 C   363 -- C   364       -0.08      0.00      5.38846
 C   450 -- C   512       -0.08     -0.00      5.38873
 C   264 -- C   268       -0.08      0.00      5.39083
 C   278 -- C   312       -0.08     -0.00      5.39132
 C   280 -- C   331       -0.08     -0.00      5.39142
 C   262 -- C   270       -0.08      0.00      5.39190
 C   268 -- C   306       -0.08      0.00      5.39549
 C   270 -- C   296       -0.08      0.00      5.39764
 C   312 -- C   340       -0.08      0.00      5.39776
 C   331 -- C   370       -0.08      0.00      5.39924
 C   296 -- C   340       -0.08      0.00      5.40185
 C   306 -- C   370       -0.08      0.00      5.40493
 C   264 -- C   280       -0.07      0.00      5.40537
 C   260 -- C   289       -0.07      0.00      5.40624
 C   260 -- C   294       -0.07      0.00      5.40702
 C   263 -- C   276       -0.07      0.00      5.40709
 C   262 -- C   278       -0.07      0.00      5.40721
 C   263 -- C   271       -0.07      0.00      5.40801
 Li    1 -- C   370       -0.03     -0.00      5.61830
 Li    2 -- C   296       -0.03      0.00      5.65726
=============================================================


============== Orbital energy and occupancy information for spin 1 =============

      Total number of orbitals:    2063
        Occupancy sum (kernel):    1026.761999577
   Occupancy sum (eigenvalues):    1026.761999577
                 HOMO-LUMO gap:       0.028009780 Eh
                 Mid-gap level:      -0.152086055 Eh

                        Orbital | Energy (Eh) | Occupancy
                            1    -1.992314166   1.0000000
                        .......   ...........   .........
                         1018    -0.187393343   0.9995873
                         1019    -0.187277261   0.9995741
                         1020    -0.183978646   0.9989556
                         1021    -0.183771070   0.9988949
                         1022    -0.183432356   0.9987884
                         1023    -0.183428173   0.9987870
                         1024    -0.183150766   0.9986921
                         1025    -0.183138880   0.9986879
                         1026    -0.166161548   0.8823633
                         1027    -0.166090946   0.8803546
                        ....... -- gap at 0K -- .........
                         1028    -0.138081165   0.0035900
                         1029    -0.138016837   0.0035277
                         1030    -0.124241179   0.0000834
                         1031    -0.123959734   0.0000772
                         1032    -0.122739937   0.0000554
                         1033    -0.121069278   0.0000352
                         1034    -0.118478907   0.0000174
                         1035    -0.118466507   0.0000173
                         1036    -0.118122847   0.0000158
                         1037    -0.117932474   0.0000150
                        .......   ...........   .........
                         2063     0.762451204   0.0000000

================================================================================

============== Orbital energy and occupancy information for spin 2 =============

      Total number of orbitals:    2063
        Occupancy sum (kernel):    1026.761999571
   Occupancy sum (eigenvalues):    1026.761999571
                 HOMO-LUMO gap:       0.028009780 Eh
                 Mid-gap level:      -0.152086055 Eh

                        Orbital | Energy (Eh) | Occupancy
                            1    -1.992314166   1.0000000
                        .......   ...........   .........
                         1018    -0.187393343   0.9995873
                         1019    -0.187277261   0.9995741
                         1020    -0.183978646   0.9989556
                         1021    -0.183771070   0.9988949
                         1022    -0.183432356   0.9987884
                         1023    -0.183428173   0.9987870
                         1024    -0.183150766   0.9986921
                         1025    -0.183138880   0.9986879
                         1026    -0.166161548   0.8823633
                         1027    -0.166090946   0.8803546
                        ....... -- gap at 0K -- .........
                         1028    -0.138081165   0.0035900
                         1029    -0.138016837   0.0035277
                         1030    -0.124241179   0.0000834
                         1031    -0.123959734   0.0000772
                         1032    -0.122739937   0.0000554
                         1033    -0.121069278   0.0000352
                         1034    -0.118478907   0.0000174
                         1035    -0.118466507   0.0000173
                         1036    -0.118122847   0.0000158
                         1037    -0.117932474   0.0000150
                        .......   ...........   .........
                         2063     0.762451204   0.0000000

================================================================================

===================== Writing canonical molecular orbitals =====================
    Spin 1
| Orbital  Energy (eV)  Norm     |
| HOMO-5   -4.99144840  1.000000 | 
| HOMO-4   -4.99133455  1.000000 | 
| HOMO-3   -4.98378593  1.000000 | 
| HOMO-2   -4.98346251  1.000000 | 
| HOMO-1   -4.52148579  1.000000 | 
| HOMO     -4.51956460  1.000000 | 
| LUMO     -3.75737969  1.000000 | 
| LUMO+1   -3.75562923  1.000000 | 
| LUMO+2   -3.38077452  1.000000 | 
| LUMO+3   -3.37311600  1.000000 | 
| LUMO+4   -3.33992363  1.000000 | 
| LUMO+5   -3.29446268  1.000000 | 
================================================================================

===================== Writing canonical molecular orbitals =====================
    Spin 2
| Orbital  Energy (eV)  Norm     |
| HOMO-5   -4.99144840  1.000000 | 
| HOMO-4   -4.99133455  1.000000 | 
| HOMO-3   -4.98378593  1.000000 | 
| HOMO-2   -4.98346251  1.000000 | 
| HOMO-1   -4.52148579  1.000000 | 
| HOMO     -4.51956460  1.000000 | 
| LUMO     -3.75737969  1.000000 | 
| LUMO+1   -3.75562923  1.000000 | 
| LUMO+2   -3.38077452  1.000000 | 
| LUMO+3   -3.37311600  1.000000 | 
| LUMO+4   -3.33992363  1.000000 | 
| LUMO+5   -3.29446268  1.000000 | 
================================================================================
 
=============== Density of States (DOS) calculation for UP spin ================
Writing "graphite_UP_DOS.txt" ... done
================================================================================
 
============== Density of States (DOS) calculation for DOWN spin ===============
Writing "graphite_DN_DOS.txt" ... done
================================================================================
 
Writing bands to file "graphite.val_bands" ... done

IS: Calculating electrolyte contribution to the atomic forces ...
================================================================================
 
***********************************************************
********** Summary of Forces (values in Eh/a) *************
*                                                         *
* ---------------------- Minimum ------------------------ *
* Atom:        16, |F|min =    0.00000851                 *
* Components:     Fx|min       Fy|min       Fz|min        *
*               0.00000074   0.00000028   0.00000847      *
*                                                         *
* ---------------------- Maximum ------------------------ *
* Atom:         1, |F|max =    0.00182473                 *
* Components:     Fx|max       Fy|max       Fz|max        *
*               0.00100318   0.00138416   0.00063826      *
*                                                         *
* ---------------- Root Mean Square Force --------------- *
*                  |F|rms =    0.00020279                 *
* Components:     Fx|rms       Fy|rms       Fz|rms        *
*               0.00012147   0.00011583   0.00011381      *
***********************************************************
 

                                                      hartree           kcal/mol
IS: NB: Energy of pure electrolyte:         -0.07768869715962         -48.750392

------------------------------ TIMING INFORMATION ------------------------------
AVERAGE TIME:    1408.507s on    128 proc(s)                                    
TOTAL TIME:      1408.515s on    128 proc(s)                                    
================= AVERAGE TIMINGS FROM ALL PROCS (CUMULATIVE) ==================
|| TAG                                    #calls    cpu time   %total  Gflops ||
|| linalg_invert_sym_matrix             :     2        0.00s   0.000%  ------ || (1 procs only)
|| density_fftbox_interp_mult_imbal     :  1200        0.00s   0.000%  ------ ||
|| onetep.F90 main loop imbalance       :     1        0.00s   0.000%  ------ ||
|| sparse_set_to_garbage                :    24        0.00s   0.000%  ------ ||
|| vdwcorrection_calculate_forces       :     2        0.01s   0.001%  ------ ||
|| ewald_calculate_forces_realspace     :     2        0.01s   0.001%  ------ ||
|| sparse_spam3toblacs_real_fast_imbal  :    96        0.01s   0.001%  ------ ||
|| onetep.F90 final imbalance           :     1        0.01s   0.001%  ------ ||
|| vdwcorrection_calculate_energy       :     2        0.01s   0.001%  ------ ||
|| basis_extract_function_from_box      :   225        0.02s   0.001%  ------ ||
|| sparse_blacstospam3_real_fast_imbal  :    88        0.03s   0.002%  ------ ||
|| pseudopotentials_core_density        :     2        0.04s   0.003%  ------ ||
|| pseudopotentials_local_on_grid       :     2        0.04s   0.003%  ------ ||
|| parallel_prepare_fd_halos_alloc      :  9360        0.05s   0.004%  ------ ||
|| restart_hamiltonian_read             :     2        0.07s   0.005%  ------ ||
|| sparse_spam3toblacs_real_fast_B2     : 12288        0.07s   0.005%  ------ ||
|| parallel_prepare_fd_halos_request    :  9360        0.09s   0.006%  ------ ||
|| pseudopotentials_nonlocal_mat        :     4        0.11s   0.008%  ------ ||
|| restart_hamiltonian_write            :     3        0.12s   0.008%  ------ ||
|| pseudo_make_structure_factor         :     2        0.23s   0.017%  ------ ||
|| parallel_prepare_fd_halos_satisfy    :  9360        0.42s   0.030%  ------ ||
|| ngwf_gradient_coeffs                 :     3        0.44s   0.031%  ------ ||
|| restart_kernel_write                 :     5        0.60s   0.043%  ------ ||
|| sparse_trace                         :   388        0.73s   0.052%  ------ ||
|| sparse_init                          :     2        0.83s   0.059%  ------ ||
|| sparse_embed_hotelling_invert_embed  :     4        0.86s   0.061%  ------ ||
|| pseudo_local_calculate_forces        :     2        0.96s   0.068%  ------ ||
|| fourier_filter_cell                  :    36        0.98s   0.070% 204.043 ||
|| ewald_calculate_energy               :     2        1.04s   0.074%  ------ ||
|| projectors_func_ovlp_box_spam3       :     4        1.05s   0.075%  ------ ||
|| integrals_grad_spam3                 :     2        1.21s   0.086%  ------ ||
|| nonsc_forces_ngwfs_calc              :     2        1.21s   0.086%  ------ ||
|| density_init_guess_real              :     2        1.25s   0.089%  ------ ||
|| smeared_ion_generate_potential_PBC   :     2        1.26s   0.089%  ------ ||
|| pseudo_nlcc_calculate_forces         :     2        1.53s   0.108%  ------ ||
|| basis_copy_function_to_box           :  1966        1.57s   0.112%  ------ ||
|| projectors_func_grad_ovlp_box_spam3  :     6        1.67s   0.119%  ------ ||
|| pseudo_nl_calculate_forces           :     2        1.85s   0.131%  ------ ||
|| function_ops_brappd_ketppd_spam3     :     6        2.08s   0.147%  ------ ||
|| projectors_init_fftbox_recip         :    22        2.13s   0.152%  ------ ||
|| fourier_apply_box_pair               :   241        2.34s   0.166%  1.668k ||
|| energy_and_force_init_cell           :     1        2.35s   0.167%  ------ ||
|| restart_ngwfs_tightbox_input         :     2        2.47s   0.176%  ------ ||
|| fourier_interpolate_cell             :    60        2.77s   0.197% 120.771 ||
|| sparse_spam3toblacs_real_fast_B1     : 12288        3.24s   0.230%  ------ ||
|| ewald_calculate_forces_recipspace    :     2        3.37s   0.240%  ------ ||
|| ewald_calculate_forces               :     2        3.40s   0.241%  ------ ||
|| parallel_prepare_fd_halos_comms_imbal:  9360        3.43s   0.243%  ------ ||
|| boltzmann_init_steric_pot            :     2        3.44s   0.245%  ------ ||
|| sparse_spam3toblacs_real_fast        :    96        3.47s   0.246%  ------ ||
|| integrals_kinetic_spam3              :     4        3.55s   0.252%  ------ ||
|| sparse_product                       :   349        3.57s   0.253%  ------ ||
|| parallel_prepare_fd_halos_clear      :  9360        3.76s   0.267%  ------ ||
|| eigenstates_calculate                :     1        3.81s   0.271%  ------ ||
|| fourier_apply_cell_backward          :   274        4.50s   0.319% 171.392 ||
|| sparse_blacstospam3_real_fast        :    88        5.34s   0.379%  ------ ||
|| projectors_gradient_batch            :    12        5.36s   0.380%  ------ ||
|| basis_dot_function_with_box          : 319.7k       5.88s   0.417%  ------ ||
|| parallel_prepare_fd_halos_comms_wait :  9360        6.30s   0.447%  ------ ||
|| cell_grid_extract_box_real           :   720        8.34s   0.592%  ------ ||
|| xc_energy_potential                  :    32        9.55s   0.678%  ------ ||
|| dense_eigensolve                     :    44       11.74s   0.834%  ------ ||
|| parallel_prepare_fd_halos            :  9360       14.10s   1.001%  ------ ||
|| edft_diag_ngwf_ham                   :    42       14.16s   1.005%  ------ ||
|| cell_grid_deposit_box_real           :  1700       14.46s   1.027%  ------ ||
|| restart_ngwfs_tightbox_output        :     2       15.53s   1.102%  ------ ||
|| basis_add_function_to_box            : 822.6k      17.38s   1.234%  ------ ||
|| edft_apply_smearing_operator         :    21       21.82s   1.549%  ------ ||
|| properties_calculate                 :     1       25.64s   1.821%  ------ ||
|| fourier_apply_cell_forward           :   266       29.01s   2.059%  25.789 ||
|| ngwf_gradient_build_batch            :    12       31.42s   2.230%  ------ ||
|| integrals_locpot_mat_els_batch       :    60       32.73s   2.324%  ------ ||
|| density_batch_row_sums               :   120       35.24s   2.502%  ------ ||
|| finite_difference_derivative         :  9360       49.11s   3.486%  ------ ||
|| density_fftbox_deposit_to_cell       :  1200       49.61s   3.522%  ------ ||
|| ngwf_gradient_batch                  :    12       54.22s   3.849%  ------ ||
|| ngwf_gradient_lnv                    :     3       57.48s   4.081%  ------ ||
|| hamiltonian_energy_components        :     2       61.59s   4.373%  ------ ||
|| dl_mg_solver_calls                   :    30       76.96s   5.464%  ------ ||
|| multigrid_calculate_hartree          :    30       80.11s   5.687%  ------ ||
|| implicit_solvent_boltzmann_forces    :     2       95.62s   6.788%  ------ ||
|| potential_apply_to_ngwf_batch        :    60       99.49s   7.063%  ------ ||
|| fourier_apply_box                    :  3732      125.45s   8.906%  2.213k ||
|| integrals_locpot_dbl_grid            :    30      132.36s   9.397%  ------ ||
|| density_fftbox_interpolate_multiply  :  1200      133.58s   9.484%  ------ ||
|| smeared_ion_force_correction         :     4      177.52s  12.604%  ------ ||
|| implicit_solvent_soft_sphere_forces  :     2      194.38s  13.801%  ------ ||
|| density_batch_interp_deposit         :   120      230.20s  16.344%  ------ ||
|| density_on_dbl_grid                  :    60      275.32s  19.547%  ------ ||
|| hamiltonian_lhxc_calculate           :    26      334.50s  23.748%  ------ ||
|| edft_calculate                       :     3      403.74s  28.665%  ------ ||
|| forces_calculate                     :     2      495.07s  35.148%  ------ ||
|| ngwf_cg_optimise                     :     2      559.88s  39.750%  ------ ||
|| energy_and_forces                    :     2     1400.78s  99.452%  ------ ||
|| total_time                           :     1     1408.51s 100.000%  ------ ||
================================================================================
Overhead of generating timer report: 
- 0 ms averaging over threads,
- 14 ms ensuring consistency across MPI ranks,
- 3 ms printing in order.

Job completed: 23-10-2023 10:08 (+0100)

onetep_launcher: ONETEP seems to have finished correctly (zero exit code).
