==================================================================================
It's Wed 18 Oct 2023 05:07:43 PM BST.
*** Starting onetep_launcher (node nid001873, PIDs 173017 173018 173019 173020 173021 173022 173023 173024 173025 173026 173027 173028 173029 173030 173031 173032)...
    - ONETEP arguments: graphite.dat
    - Current directory: /mnt/lustre/a2fs-work3/work/e89/e89/arihant/linuc/theta/new/01/0.-1
    - Launcher executable directory: /mnt/lustre/a2fs-work3/work/e89/e89/arihant/onetep/utils
    - (-e) ONETEP executable specified through command-line: /work/e89/e89/arihant/onetep/bin/onetep.archer2_2023_cray
      ... trying /work/e89/e89/arihant/onetep/bin/onetep.archer2_2023_cray
          -> looks OK
*** Setting up environment...
    - (-s) Process stack size: unlimited
    - (-t) OMP_NUM_THREADS: 8
    - (-o) OMP_STACKSIZE: 64M
    - (-c) Maximum core file size: 2048000
    - (-d) decfort_dump_flag: n
    - (-m) I_MPI_OFA_TRANSLATION_CACHE: 0
    - (-m) I_MPI_DAPL_TRANSLATION_CACHE: 0
    - (-m) I_MPI_DAPL_UD_TRANSLATION_CACHE: 0
*** Starting ONETEP...
    - /work/e89/e89/arihant/onetep/bin/onetep.archer2_2023_cray graphite.dat
=================================================================================
_________________________________________________________________________________
 +---------------------------------------------------------------+
 |                                                               |
 |        ####### #     # ####### ####### ####### ######         |
 |        #     # ##    # #          #    #       #     #        |
 |        #     # # #   # #          #    #       #     #        |
 |        #     # #  #  # #####      #    #####   ######         |
 |        #     # #   # # #          #    #       #              |
 |        #     # #    ## #          #    #       #              |
 |        ####### #     # #######    #    ####### #              |
 |                                                               |
 |        Linear-Scaling Ab Initio Total Energy Program          |
 |                                                               |
 |          Release for academic collaborators of ODG            |
 |                                             Version 6.1.59    |
 | Remote: https://github.com/onetep-devel/onetep.git            |
 | Local branch: master                                          |
 | Commit ID: 3df6b8ca88fa1735659d3248d54c94b50edec21b           |
 | Date: Thu Oct 5 13:49:52 2023 +0200                           |
 | Working tree clean                                            |
 |                                                               |
 +---------------------------------------------------------------+
 |                                                               |
 |  Authors:                                                     |
 |  Jacek Dziedzic, Peter D. Haynes, Nicholas D. M. Hine,        |
 |  Arash A. Mostofi, Mike C. Payne and Chris-Kriton Skylaris    |
 |                                                               |
 |  Contributors:                                                |
 |  J. Aarons, L. Andrinopoulos, P. W. Avraam, R. A. Bell,       |
 |  A. Bhandari, G. A. Bramley, R. J. Charlton, S. J. Clark,     |
 |  R. J. Clements, G. C. Constantinescu, F. Corsetti,           |
 |  N. Corsini, O. Dieguez, S. M. M. Dubois, K. K. B. Duff,      |
 |  J. M. Escartin, M. Escobar Azor, A. Greco,                   |
 |  H. Helal, Q. O. Hill, L. P. Lee, J.-H. Li,                   |
 |  E. B. Linscott, G. Moynihan, D. D. O`Regan,                  |
 |  O. K. Okan, M. J. S. Phipps, C. J. Pickard,                  |
 |  J. C. A. Prentice, M. I. J. Probert, L. E. Ratcliff,         |
 |  M. Robinson, A. Ruiz Serrano, M. dos Santos Dias,            |
 |  J. S. Spencer, E. W. Tait, G. Teobaldi, D. Turban,           |
 |  V. Vitale, K. A. Wilkinson, C. Weber, J. C. Womack,          |
 |  N. Yeung and T. J. Zuehlsdorff                               |
 |                                                               |
 |                                   Copyright (c) 2004-2023     |
 |                                                               |
 |  Please cite:                                                 |
 |  "The ONETEP linear-scaling density functional theory program"|
 |   J. Chem. Phys. 152(17) 174111 (2020)                        |
 |                                                               |
 |          in all publications arising from your use of ONETEP. |
 |                                                               |
 +---------------------------------------------------------------+
 |                                                               |
 |   ONETEP is based on developments described in the following  |
 |   publications:                                               |
 |                                                               |
 |  "Nonorthogonal generalized Wannier function pseudopotential  |
 |   plane-wave method".                                         |
 |   C.-K. Skylaris, A. A. Mostofi, P. D. Haynes, O. Dieguez,    |
 |   M. C. Payne.                                                |
 |   Phys. Rev. B 66 035119 (2002).                              |
 |                                                               |
 |  "Preconditioned iterative minimization for linear-scaling    |
 |   electronic structure calculations".                         |
 |   A. A. Mostofi, P. D. Haynes, C.-K. Skylaris, M. C. Payne.   |
 |   J. Chem. Phys. 119(17), pp.8842-8848 (2003).                |
 |                                                               |
 |  "Total-energy calculations on a real space grid with         |
 |   localized functions and a plane-wave basis".                |
 |   A. A. Mostofi, C.-K. Skylaris, P. D. Haynes, M. C. Payne.   |
 |   Comput. Phys. Commun. 147, pp.788-802 (2002).               |
 |                                                               |
 |  "Accurate kinetic energy evaluation in electronic structure  |
 |   calculations with localized functions on real space grids"  |
 |   C.-K. Skylaris, A. A. Mostofi, P. D. Haynes, C. J. Pickard, |
 |   M. C. Payne.                                                |
 |   Comput. Phys. Commun. 140, pp.315-322 (2001).               |
 |                                                               |
 |  "Accurate ionic forces and geometry optimization in linear-  |
 |   scaling density-functional theory with local orbitals"      |
 |   N. D. M. Hine, M. Robinson, P. D. Haynes, C.-K. Skylaris,   |
 |   M. C. Payne, and A. A. Mostofi.                             |
 |   Phys. Rev. B 83 195102 (2011).                              |
 |                                                               |
 +---------------------------------------------------------------+

Job started: 18-10-2023 17:07 (+0100)
 
Reading parameters from file "graphite.dat" ...... done

If your calculation crashes here, before "Checking processes and threads..."
is displayed, then your stack size is insufficient.
If so, use "ulimit -s unlimited" at runtime.
You can disable this check with "check_stack_size F".

Checking processes and threads...
   Determining the default number of threads...
      No default threads set at compilation time: defaulting to 1.
      OpenMP library call suggests 8 threads.
      Hybrid MPI-OpenMP compilation detected.
      Number of MPI processes > 1.
      OMP_NUM_THREADS environment variable present and
      its value matches the one obtained from the OpenMP library call.
      Using this value as default.
      Default threads: 8
      Default applies to threads_max and threads_num_fftboxes.
      Settings in the input file override this default.
   ... done

   Running with 128 MPI processes.
   There are 16 MPI processes running on the same node as the root process.
   Each MPI process is using: 
               1 threads for simulation cell FFTs.
               1 threads for parallel FFT box operations.
               8 threads for loops over batched FFT box operations.
               8 threads in other parallel regions.
   MPI Interface: S1 (use mpi_f08) (-DMPI -DUSE_MPI_F08).
   MPI_ASYNC_PROTECTS_NONBLOCKING: Yes. MPI_SUBARRAYS_SUPPORTED: Yes.
   GPU Interface: None.
... done

Basic input checks...
Resetting ngwf_cg_rotate to TRUE for EDFT calculations
... done

Reading geometry and species blocks from file "graphite.dat" ...
  Reading POSITIONS geometry from str.xyz

  <species_atomic_set> block not found: NGWF initialisation set to SOLVE
IS: Dielectric excluded regions:
    - NONE.
IS: Assigning soft sphere radii for soft sphere solvation...
IS: No soft sphere radii specified. Default Alvarez radii used for all atoms.

----------- SOFT SPHERE RADII -----------
Li  5.333
C   4.442
-----------------------------------------

    
  Number of PPD points along a3 set to 1.  This is 
  the default value, it may have been provided also in the input file.
... done
 Writing xyz coordinates to file "graphite.xyz" ... done


--------------------------------------------------------------------------------
---------------------------------- INPUT FILE ----------------------------------
--------------------------------------------------------------------------------

task geometryoptimization                                                       
geom_method LBFGS                                                               
geom_continuation F                                                             
write_xyz T                                                                     
edft_grand_canonical T                                                          
edft_reference_potential  -4.42 eV                                              
edft_electrode_potential -0.10 V                                                
edft_nelec_thres 0.000001                                                       
is_dielectric_function soft_sphere                                              
is_implicit_solvent T                                                           
is_smeared_ion_rep T                                                            
is_include_apolar T                                                             
is_solvation_properties F                                                       
is_pbe                    full                                                  
is_pbe_temperature        298.15                                                
is_pbe_bc_debye_screening T                                                     
is_pbe_neutralisation_scheme counterions_auto                                   
is_pbe_energy_tolerance 1E+50                                                   
is_bc_coarseness 5                                                              
is_bc_threshold 1E-9                                                            
is_bulk_permittivity 90.7                                                       
is_solvent_surf_tension 0.0506 N/m                                              
%block sol_ions                                                                 
Li  +1 1.0                                                                      
PF6 -1 1.0                                                                      
%endblock sol_ions                                                              
is_steric_pot_type M                                                            
is_hc_steric_dens_isovalue  0.001                                               
is_hc_steric_smearing         0.4 bohr                                          
is_steric_write T                                                               
%block species_solvent_radius                                                   
Li 3.0                                                                          
C 3.0                                                                           
%endblock species_solvent_radius                                                
multigrid_bc:   P P P                                                           
ion_ion_bc:     P P P                                                           
pspot_bc:       P P P                                                           
smeared_ion_bc: P P P                                                           
mg_max_iters_vcycle 500                                                         
mg_vcyc_smoother_iter_pre 4                                                     
mg_vcyc_smoother_iter_post 4                                                    
mg_max_res_ratio 1000.0                                                         
mg_max_iters_newton 300                                                         
edft                    : T                                                     
edft_smearing_width     : 0.1 eV                                                
spin                    : 0.0                                                   
edft_spin_fix           : 2                                                     
spin_polarized          : T                                                     
cutoff_energy :  1000 eV                                                        
kernel_cutoff : 1000 bohr                                                       
xc_functional PBE                                                               
dispersion 4                                                                    
output_detail VERBOSE                                                           
do_properties T                                                                 
cube_format F                                                                   
dx_format F                                                                     
write_denskern T                                                                
write_tightbox_ngwfs T                                                          
write_hamiltonian T                                                             
%block species                                                                  
Li Li 3  5  8.0                                                                 
C  C  6  4  8.0                                                                 
%endblock species                                                               
%block species_pot                                                              
Li '/work/e89/e89/arihant/pseudo/Li.usp'                                        
C '/work/e89/e89/arihant/pseudo/C.usp'                                          
%endblock species_pot                                                           
%BLOCK LATTICE_CART                                                             
ang                                                                             
34.16920551     0.00000000     0.00000000                                       
0.00000000    19.72760000     0.00000000                                        
0.00000000     0.00000000   100.02798000                                        
%ENDBLOCK LATTICE_CART                                                          
positions_xyz_file str.xyz                                                      
     Hash =   000007151784233706529847

--------------------------------------------------------------------------------
-------------------------------- END INPUT FILE --------------------------------
--------------------------------------------------------------------------------


 
 ESDF WARNING(1): "ispbeenergytolerance" (esdf_physical) has no units. Assume "hartree".
<<<<<<<<<<<<<<<<<<<<<<<<<<<<<<<<< Full system >>>>>>>>>>>>>>>>>>>>>>>>>>>>>>>>>>
<<<<<<<<<<<<<<<<<<<<<<<<< Pseudopotential information >>>>>>>>>>>>>>>>>>>>>>>>>>
File: /work/e89/e89/arihant/pseudo/Li.usp [ 2001 points up to Gmax=  52.9 (1/bohr)]
  Atomic number:  3;  ionic charge:  3.000000
    Shell 1: l = 0; rc = 1.19 bohr
    Shell 2: l = 0; rc = 1.25 bohr
File: /work/e89/e89/arihant/pseudo/C.usp [ 2001 points up to Gmax=  52.9 (1/bohr)]
  Atomic number:  6;  ionic charge:  4.000000
    Shell 1: l = 0; rc = 1.19 bohr
  Core charge supplied for Nonlinear Core Corrections
<<<<<<<<<<<<<<<<<<<<<<<<<<<<<<<<<<<<<<<<>>>>>>>>>>>>>>>>>>>>>>>>>>>>>>>>>>>>>>>>

-------------------------- Atom counting information ---------------------------
Symbol    Natoms    Nngwfs    Nprojs
  Li         1         5         2
  C        512      2048       512
.......   ......    ......    ......
Totals:    513      2053       514
--------------------------------------------------------------------------------

=============================== PSINC grid sizes ===============================
                      Simulation cell:  143 x  91 x 416
                              FFT-box:  117 x  91 x 117
                                  PPD:   11 x   7 x   1
Grid space d1=  0.451541543008a0 (KE cutoff=  37.25706Eh =1013.81618eV)
Grid space d2=  0.409667706512a0 (KE cutoff=  45.26271Eh =1231.66098eV)
Grid space d3=  0.454388192297a0 (KE cutoff=  36.79171Eh =1001.15326eV)
================================================================================
  
WARNING in cell_grid_distribute:
Average of less than one 23-slab per proc, so workload cannot be
equally balanced between procs.

********************* Fourier parallelisation information **********************
       Coarse grid (whole simulation cell) dimensions:    143    91   416
          Real-space ('12') slabs/proc (min max mean):      3     4     3
         Recip-space ('23') slabs/proc (min max mean):      0     1     0
********************************************************************************

********************* Fourier parallelisation information **********************
       Double grid (whole simulation cell) dimensions:    286   182   832
          Real-space ('12') slabs/proc (min max mean):      6     7     6
         Recip-space ('23') slabs/proc (min max mean):      1     2     1
********************************************************************************

********************* Fourier parallelisation information **********************
         Fine grid (whole simulation cell) dimensions:    288   184   832
          Real-space ('12') slabs/proc (min max mean):      6     7     6
         Recip-space ('23') slabs/proc (min max mean):      1     2     1
         Grid scale modified to satisfy multigrid solver grid constraints
         Grid scale values after modifification:         2.01  2.02  2.00
********************************************************************************
ONETEP fine grid is 288 x 184 x 832 gridpoints, 64.5704 x 37.2798 x 189.0255 bohr.
FD multigrid is     288 x 184 x 832 gridpoints, 64.5704 x 37.2798 x 189.0255 bohr.


Atom SCF Calculation for Li : Z (AE atom) =   3 : Z (PS atom) =   3
Config String:
Orbitals (num,occ):  3     2.00 1.00 0.00
Orbitals   (num,l):  3        0    0    1
Real-space Grid (nr,dr,rmax): 1343    0.0059612519    8.0000000000
Spherical Bessel Basis (nsws,lmax,cutoff):   37    1  220.4959463253
Confining potential (l,width,scale):  0    3.0000000000  100.0000000000
Confining potential (l,width,scale):  1    3.0000000000  100.0000000000
  1         -3.7050169094   -5.2301177776    2.5388568852   -0.9989538802
  2         -6.0510920273   -4.2679357854    3.2724001845   -1.3422946715
  3         -6.7975021434   -3.8722499620    3.6648237887   -1.5325279919
  4         -7.0147472228   -3.7673066376    3.7864613280   -1.5966989055
  5         -7.0774132854   -3.7446783348    3.8157063634   -1.6161454686
  6         -7.0951992563   -3.7420177453    3.8204515040   -1.6217593843
  7         -7.1001226024   -3.7430426481    3.8200527077   -1.6233132433
  8         -7.1014239576   -3.7441529610    3.8191274553   -1.6237164860
  9         -7.1017352306   -3.7448434699    3.8184905098   -1.6238077213
 10         -7.1017916056   -3.7452114113    3.8181373932   -1.6238209669
 11         -7.1017908912   -3.7453946820    3.8179578223   -1.6238181917
 12         -7.1017822190   -3.7454828903    3.8178702968   -1.6238141227
 13         -7.1017768840   -3.7455162316    3.8178369316   -1.6238119017
 14         -7.1017732849   -3.7455353767    3.8178176959   -1.6238104459
 15         -7.1017709700   -3.7455463461    3.8178066371   -1.6238095253
 16         -7.1017695244   -3.7455526225    3.8178002910   -1.6238089565
 17         -7.1017686390   -3.7455562110    3.8177966534   -1.6238086105
 18         -7.1017681040   -3.7455582619    3.8177945697   -1.6238084022
 19         -7.1017677838   -3.7455594341    3.8177933764   -1.6238082778
 20         -7.1017675934   -3.7455601042    3.8177926929   -1.6238082039
 21         -7.1017674808   -3.7455604874    3.8177923014   -1.6238081602
 22         -7.1017674145   -3.7455607066    3.8177920771   -1.6238081344
Atom SCF converged after  22 iterations to a total energy of     -7.10176741

Atom SCF Calculation for C  : Z (AE atom) =   6 : Z (PS atom) =   4
Config String:
Orbitals (num,occ):  2     2.00 2.00
Orbitals   (num,l):  2        0    1
Real-space Grid (nr,dr,rmax): 1343    0.0059612519    8.0000000000
Spherical Bessel Basis (nsws,lmax,cutoff):   37    1  220.4959463253
Confining potential (l,width,scale):  0    3.0000000000  100.0000000000
Confining potential (l,width,scale):  1    3.0000000000  100.0000000000
  1         -5.8177092822   -1.2555419264    4.5135233515   -1.7471920893
  2         -5.6032261188   -1.3440047989    4.4246587726   -1.7090653419
  3         -5.5936068668   -1.3561735374    4.4140765627   -1.7034094417
  4         -5.5958505747   -1.3587284552    4.4121342699   -1.7022848669
  5         -5.5969687665   -1.3601698222    4.4109982405   -1.7017057890
  6         -5.5975400979   -1.3609792837    4.4103423276   -1.7013975981
  7         -5.5978435204   -1.3614297943    4.4099696476   -1.7012314972
  8         -5.5980096069   -1.3616786122    4.4097605138   -1.7011416075
  9         -5.5981021113   -1.3618152853    4.4096441572   -1.7010929151
 10         -5.5981539939   -1.3618900852    4.4095797860   -1.7010665406
 11         -5.5981831160   -1.3619309228    4.4095443105   -1.7010522599
 12         -5.5981994243   -1.3619531807    4.4095248124   -1.7010445305
 13         -5.5982085235   -1.3619652972    4.4095141175   -1.7010403487
 14         -5.5982135796   -1.3619718867    4.4095082606   -1.7010380870
 15         -5.5982163780   -1.3619754676    4.4095050573   -1.7010368642
 16         -5.5982179208   -1.3619774123    4.4095033073   -1.7010362032
 17         -5.5982187685   -1.3619784678    4.4095023522   -1.7010358460
 18         -5.5982192328   -1.3619790404    4.4095018314   -1.7010356530
 19         -5.5982194864   -1.3619793509    4.4095015476   -1.7010355488
 20         -5.5982196245   -1.3619795192    4.4095013931   -1.7010354925
 21         -5.5982196995   -1.3619796104    4.4095013090   -1.7010354621
Atom SCF converged after  21 iterations to a total energy of     -5.59821970

BC: Task: GEOMETRYOPTIMIZATION
BC: +++++++++++++++ Summary of boundary conditions ++++++++++++++
BC: |       Component       |     Keyword     |   Periodicity   |
BC: |                       |                 |     X  Y  Z [1] |
BC: |-----------------------------------------------------------|
BC: | Ion-ion               | ion_ion_bc [2]  |     P  P  P     |
BC: | Local pseudopotential | pspot_bc [3]    |     P  P  P     |
BC: | Multigrid solver      | multigrid_bc    |     P  P  P     |
BC: | Smeared ions          | smeared_ion_bc  |     P  P  P     |
BC: | Van der Waals         | vdw_bc          |     P  P  P     |
BC: +++++++++++++++++++++++++++++++++++++++++++++++++++++++++++++
BC: P: Periodic, O: Open.
BC: [1] Not strictly along X, Y, Z but rather along lattice vectors A1, A2, A3.
BC: [2] Also affected by: pbc_correction_cutoff, cutoff_coulomb_type,
BC:     is_smeared_ion_rep, is_implicit_solvent, openbc_ion_ion.
BC: [3] Also affected by: is_smeared_ion_rep, is_implicit_solvent, openbc_pspot.

================================================================================
<<<<<<<<<<<<<<<<<<<< Starting ONETEP Geometry Optimisation >>>>>>>>>>>>>>>>>>>>>
================================================================================

 Geometry Optimisation: output file is "graphite.geom"
 
 
                           -------------------------------
                                     Cell Contents
                           -------------------------------
 
            xxxxxxxxxxxxxxxxxxxxxxxxxxxxxxxxxxxxxxxxxxxxxxxxxxxxxxxxxxxx
            x  Element    Atom      Absolute co-ordinates of atoms     x
            x            Number        x           y           z       x
            x----------------------------------------------------------x
            x    Li        1       16.254593    9.157588   16.347962   x
            x    C         2       41.784077    2.198453    6.421654   x
            x    C         3       49.856221    2.198445    6.421112   x
            x    C         4       57.927769    2.198451    6.421529   x
            x    C         5       12.192638    2.198058    6.410533   x
            x    C         6       20.263804    2.198109    6.411138   x
            x    C         7        4.122035    2.198343    6.422733   x
            x    C         8       28.335030    2.198341    6.422338   x
            x    C         9       36.406681    2.198454    6.421800   x
            x    C        10       44.478730    2.198411    6.420277   x
            x    C        11       52.550767    2.198481    6.419961   x
            x    C        12       60.621997    2.198551    6.421545   x
            x    C        13        1.427987    2.198413    6.425394   x
            x    C        14        9.498446    2.198137    6.415144   x
            x    C        15       17.569449    2.198026    6.410352   x
            x    C        16       25.640651    2.198320    6.419849   x
            x    C        17       33.712164    2.198449    6.424218   x
            x    C        18       29.676431    4.528415    6.422956   x
            x    C        19       37.748137    4.528457    6.422830   x
            x    C        20       45.820137    4.528464    6.422427   x
            x    C        21        8.157328    4.528171    6.413320   x
            x    C        22       53.892098    4.528519    6.422162   x
            x    C        23        0.086822    4.528415    6.424173   x
            x    C        24       16.228244    4.528007    6.405316   x
            x    C        25       24.299537    4.528292    6.412871   x
            x    C        26       32.370935    4.528462    6.423196   x
            x    C        27       40.442789    4.528447    6.421193   x
            x    C        28       48.514854    4.528413    6.421231   x
            x    C        29       56.586524    4.528494    6.420830   x
            x    C        30       61.963139    4.528519    6.424375   x
            x    C        31        5.463219    4.528300    6.419989   x
            x    C        32       13.533812    4.527990    6.407037   x
            x    C        33       21.605182    4.528133    6.409698   x
            x    C        34       25.640819    6.858358    6.414016   x
            x    C        35       33.712319    6.858438    6.424098   x
            x    C        36        4.122135    6.858372    6.419755   x
            x    C        37       41.784162    6.858423    6.423381   x
            x    C        38       49.856284    6.858451    6.423631   x
            x    C        39       12.192642    6.858154    6.404762   x
            x    C        40       20.263966    6.858253    6.404558   x
            x    C        41       28.335156    6.858462    6.418351   x
            x    C        42       36.406838    6.858444    6.422533   x
            x    C        43       44.478809    6.858408    6.422372   x
            x    C        44       52.550823    6.858483    6.422372   x
            x    C        45       57.927790    6.858510    6.423480   x
            x    C        46        1.428072    6.858440    6.424570   x
            x    C        47        9.498400    6.858241    6.409437   x
            x    C        48       60.622010    6.858506    6.423289   x
            x    C        49       17.569515    6.858158    6.404066   x
            x    C        50        0.086914    9.188493    6.424003   x
            x    C        51       21.605267    9.188451    6.405457   x
            x    C        52       29.676522    9.188534    6.420762   x
            x    C        53       37.748209    9.188453    6.423958   x
            x    C        54       45.820244    9.188372    6.424576   x
            x    C        55        8.157320    9.188374    6.409679   x
            x    C        56       16.228267    9.188332    6.401614   x
            x    C        57       24.299558    9.188427    6.408753   x
            x    C        58       32.370927    9.188457    6.422391   x
            x    C        59       40.442792    9.188404    6.423077   x
            x    C        60       48.514845    9.188393    6.423293   x
            x    C        61       53.892170    9.188451    6.424347   x
            x    C        62       56.586515    9.188491    6.423034   x
            x    C        63       61.963268    9.188468    6.425460   x
            x    C        64        5.463287    9.188389    6.417079   x
            x    C        65       13.533824    9.188338    6.403309   x
            x    C        66       17.569466   11.518572    6.402318   x
            x    C        67       25.640794   11.518544    6.412958   x
            x    C        68       33.712314   11.518484    6.424007   x
            x    C        69       41.784164   11.518383    6.424984   x
            x    C        70       60.622044   11.518480    6.423814   x
            x    C        71        4.122211   11.518491    6.418821   x
            x    C        72       12.192676   11.518525    6.403033   x
            x    C        73       20.263930   11.518572    6.402978   x
            x    C        74       28.335172   11.518572    6.417586   x
            x    C        75       36.406865   11.518501    6.423075   x
            x    C        76       44.478792   11.518387    6.424003   x
            x    C        77       49.856204   11.518374    6.424835   x
            x    C        78       52.550774   11.518391    6.423442   x
            x    C        79       57.927790   11.518448    6.424406   x
            x    C        80        1.428111   11.518478    6.424062   x
            x    C        81        9.498416   11.518482    6.408012   x
            x    C        82       13.533786   13.848731    6.403836   x
            x    C        83       21.605109   13.848705    6.407167   x
            x    C        84       29.676452   13.848578    6.422074   x
            x    C        85       37.748168   13.848431    6.424228   x
            x    C        86       56.586481   13.848410    6.422482   x
            x    C        87        0.086909   13.848499    6.423831   x
            x    C        88        8.157432   13.848601    6.411246   x
            x    C        89       16.228195   13.848718    6.401963   x
            x    C        90       24.299455   13.848590    6.410928   x
            x    C        91       32.370941   13.848512    6.422867   x
            x    C        92       40.442775   13.848374    6.423376   x
            x    C        93       48.514786   13.848359    6.423504   x
            x    C        94       45.820097   13.848314    6.424910   x
            x    C        95       53.892055   13.848369    6.424009   x
            x    C        96       61.963245   13.848440    6.424825   x
            x    C        97        5.463338   13.848522    6.418340   x
            x    C        98        9.498508   16.178675    6.412400   x
            x    C        99       17.569332   16.178801    6.406096   x
            x    C       100       25.640568   16.178630    6.417980   x
            x    C       101       33.712178   16.178544    6.424426   x
            x    C       102       52.550701   16.178395    6.422346   x
            x    C       103       60.622050   16.178427    6.422348   x
            x    C       104        4.122186   16.178577    6.421074   x
            x    C       105       12.192691   16.178733    6.406990   x
            x    C       106       20.263700   16.178730    6.407511   x
            x    C       107       44.478673   16.178390    6.423053   x
            x    C       108       28.334975   16.178597    6.421165   x
            x    C       109       36.406693   16.178471    6.422865   x
            x    C       110       41.784078   16.178363    6.424128   x
            x    C       111       49.856155   16.178354    6.423850   x
            x    C       112       57.927801   16.178386    6.422996   x
            x    C       113        1.428138   16.178467    6.424527   x
            x    C       114       13.533829   18.508771    6.411174   x
            x    C       115       21.604844   18.508683    6.414893   x
            x    C       116       29.676240   18.508577    6.424916   x
            x    C       117       48.514665   18.508376    6.421747   x
            x    C       118       56.586392   18.508390    6.421284   x
            x    C       119        0.086899   18.508494    6.423185   x
            x    C       120        8.157422   18.508669    6.417055   x
            x    C       121       40.442656   18.508467    6.422372   x
            x    C       122       16.228080   18.508758    6.409256   x
            x    C       123       24.299225   18.508633    6.417899   x
            x    C       124       32.370750   18.508556    6.423723   x
            x    C       125       37.748030   18.508452    6.423604   x
            x    C       126       45.820029   18.508395    6.423202   x
            x    C       127       53.891960   18.508375    6.422548   x
            x    C       128       61.963236   18.508428    6.423463   x
            x    C       129        5.463325   18.508624    6.421972   x
            x    C       130        9.498484   20.838696    6.419163   x
            x    C       131       17.569228   20.838679    6.415872   x
            x    C       132       25.640409   20.838558    6.423298   x
            x    C       133       44.478628   20.838396    6.421068   x
            x    C       134       52.550576   20.838371    6.420341   x
            x    C       135       36.406585   20.838469    6.422491   x
            x    C       136       60.621970   20.838414    6.421499   x
            x    C       137        4.122133   20.838571    6.422472   x
            x    C       138       12.192694   20.838711    6.415660   x
            x    C       139       20.263531   20.838658    6.416531   x
            x    C       140       28.334850   20.838537    6.423905   x
            x    C       141       33.711968   20.838537    6.424334   x
            x    C       142       41.783954   20.838399    6.422896   x
            x    C       143       49.855974   20.838337    6.421520   x
            x    C       144       57.927676   20.838329    6.422178   x
            x    C       145        1.428058   20.838469    6.424005   x
            x    C       146       61.963215   23.168390    6.422614   x
            x    C       147        5.463283   23.168519    6.422824   x
            x    C       148       13.533809   23.168641    6.419662   x
            x    C       149       40.442475   23.168409    6.421495   x
            x    C       150       21.604740   23.168505    6.421921   x
            x    C       151       32.370508   23.168502    6.423081   x
            x    C       152       48.514606   23.168379    6.418876   x
            x    C       153       56.586368   23.168324    6.420037   x
            x    C       154        0.086865   23.168401    6.421890   x
            x    C       155        8.157313   23.168549    6.420479   x
            x    C       156       16.227985   23.168596    6.418668   x
            x    C       157       24.299055   23.168522    6.422440   x
            x    C       158       29.676066   23.168462    6.424767   x
            x    C       159       37.747871   23.168432    6.423304   x
            x    C       160       45.819991   23.168364    6.420530   x
            x    C       161       53.891951   23.168328    6.420452   x
            x    C       162       57.927640   25.498288    6.421097   x
            x    C       163        1.428040   25.498371    6.422533   x
            x    C       164       36.406443   25.498411    6.422059   x
            x    C       165        9.498461   25.498538    6.421596   x
            x    C       166       17.569249   25.498473    6.422818   x
            x    C       167       44.478573   25.498398    6.418818   x
            x    C       168       52.550536   25.498337    6.417746   x
            x    C       169       60.621933   25.498336    6.420774   x
            x    C       170        4.122056   25.498430    6.421316   x
            x    C       171       12.192583   25.498559    6.420566   x
            x    C       172       20.263490   25.498472    6.422196   x
            x    C       173       25.640313   25.498407    6.424347   x
            x    C       174       33.711875   25.498432    6.423372   x
            x    C       175       41.783888   25.498385    6.421414   x
            x    C       176       28.334735   25.498400    6.423037   x
            x    C       177       49.855985   25.498360    6.418636   x
            x    C       178       32.370521   27.828341    6.421907   x
            x    C       179       53.891860   27.828281    6.418629   x
            x    C       180       61.963152   27.828290    6.421877   x
            x    C       181        5.463164   27.828385    6.422123   x
            x    C       182       13.533767   27.828404    6.423077   x
            x    C       183       40.442488   27.828336    6.420411   x
            x    C       184       48.514614   27.828326    6.416694   x
            x    C       185       56.586339   27.828321    6.418772   x
            x    C       186        0.086820   27.828326    6.420928   x
            x    C       187        8.157290   27.828392    6.420970   x
            x    C       188       16.228027   27.828366    6.422837   x
            x    C       189       21.604742   27.828366    6.424572   x
            x    C       190       24.299070   27.828347    6.423425   x
            x    C       191       29.675997   27.828357    6.423678   x
            x    C       192       37.747809   27.828379    6.422603   x
            x    C       193       45.819972   27.828315    6.418653   x
            x    C       194       49.856036   30.158281    6.417552   x
            x    C       195       57.927691   30.158326    6.420590   x
            x    C       196        1.428009   30.158287    6.422533   x
            x    C       197        9.498453   30.158275    6.422794   x
            x    C       198       28.334731   30.158313    6.423610   x
            x    C       199       36.406404   30.158325    6.421437   x
            x    C       200       44.478562   30.158296    6.417782   x
            x    C       201       52.550564   30.158272    6.416928   x
            x    C       202       60.621933   30.158247    6.420250   x
            x    C       203        4.121984   30.158245    6.421766   x
            x    C       204       12.192564   30.158257    6.422011   x
            x    C       205       17.569275   30.158206    6.424566   x
            x    C       206       20.263497   30.158262    6.423729   x
            x    C       207       25.640324   30.158213    6.425237   x
            x    C       208       33.711854   30.158294    6.422981   x
            x    C       209       41.783910   30.158328    6.420465   x
            x    C       210       45.820016   32.488255    6.418547   x
            x    C       211       53.891964   32.488253    6.419169   x
            x    C       212       61.963175   32.488230    6.421911   x
            x    C       213        5.463208   32.488189    6.424090   x
            x    C       214       24.299130   32.488126    6.424243   x
            x    C       215       32.370538   32.488196    6.422765   x
            x    C       216       40.442500   32.488283    6.419980   x
            x    C       217       48.514657   32.488236    6.416733   x
            x    C       218       56.586413   32.488279    6.419160   x
            x    C       219        0.086814   32.488255    6.421705   x
            x    C       220        8.157256   32.488179    6.422297   x
            x    C       221       16.228021   32.488087    6.421837   x
            x    C       222       13.533801   32.488117    6.422404   x
            x    C       223       21.604812   32.488164    6.424409   x
            x    C       224       29.676074   32.488223    6.425330   x
            x    C       225       37.747884   32.488274    6.422072   x
            x    C       226       41.783973   34.818246    6.420879   x
            x    C       227       49.856066   34.818240    6.418750   x
            x    C       228       57.927655   34.818266    6.421125   x
            x    C       229        1.427979   34.818200    6.424458   x
            x    C       230       20.263630   34.818021    6.420139   x
            x    C       231       28.334905   34.818130    6.424914   x
            x    C       232       36.406534   34.818229    6.421263   x
            x    C       233       44.478660   34.818221    6.418653   x
            x    C       234       52.550685   34.818246    6.418171   x
            x    C       235       12.192674   34.818009    6.418748   x
            x    C       236       60.621967   34.818259    6.420675   x
            x    C       237        4.122063   34.818108    6.423776   x
            x    C       238        9.498410   34.818030    6.421562   x
            x    C       239       17.569273   34.817947    6.420029   x
            x    C       240       25.640449   34.818108    6.425133   x
            x    C       241       33.711924   34.818198    6.423657   x
            x    C       242       45.820129   37.148234    6.420311   x
            x    C       243       53.892038   37.148267    6.420439   x
            x    C       244       61.963173   37.148295    6.422992   x
            x    C       245       16.228131   37.147887    6.413817   x
            x    C       246       24.299289   37.148061    6.420263   x
            x    C       247       32.370727   37.148219    6.423610   x
            x    C       248       40.442598   37.148197    6.420356   x
            x    C       249        8.157262   37.147977    6.419443   x
            x    C       250       48.514756   37.148191    6.418691   x
            x    C       251       56.586430   37.148231    6.419787   x
            x    C       252        0.086806   37.148166    6.423466   x
            x    C       253        5.463211   37.148095    6.423844   x
            x    C       254       13.533877   37.147855    6.415085   x
            x    C       255       21.604963   37.147943    6.418306   x
            x    C       256       29.676257   37.148106    6.425598   x
            x    C       257       37.748001   37.148225    6.422149   x
            x    C       258       18.905038    9.188134   12.484642   x
            x    C       259       13.519377    9.187875   12.486587   x
            x    C       260       14.862577   11.522376   12.489820   x
            x    C       261       17.562134   11.522909   12.486269   x
            x    C       262       51.186233   27.828149   12.533862   x
            x    C       263       45.809543   27.827928   12.531815   x
            x    C       264       47.151020   30.156835   12.536513   x
            x    C       265       49.845076   30.157085   12.535685   x
            x    C       266       14.862224    6.853137   12.484056   x
            x    C       267       17.562032    6.853020   12.480207   x
            x    C       268       21.597623   13.852008   12.517810   x
            x    C       269       18.903411   13.855172   12.514381   x
            x    C       270       13.520913   13.855041   12.512869   x
            x    C       271       14.864266   16.182103   12.517977   x
            x    C       272       17.560051   16.182532   12.517251   x
            x    C       273       47.150687   25.498893   12.530007   x
            x    C       274       49.844868   25.499088   12.529200   x
            x    C       275       53.881166   32.488187   12.522930   x
            x    C       276       51.186745   32.486900   12.528928   x
            x    C       277       45.809329   32.486613   12.526392   x
            x    C       278       47.150534   34.817089   12.523801   x
            x    C       279       49.845556   34.817437   12.522956   x
            x    C       280       14.863609    2.194010   12.522382   x
            x    C       281       17.559526    2.193991   12.521153   x
            x    C       282       22.937849    2.196497   12.527376   x
            x    C       283        9.485392    2.195741   12.525288   x
            x    C       284       63.290717    2.199227   12.534285   x
            x    C       285        6.790476    2.196937   12.526830   x
            x    C       286       31.009777    2.198676   12.532333   x
            x    C       287        1.414154    2.198865   12.530281   x
            x    C       288       25.633090    2.197511   12.526031   x
            x    C       289       33.703840    2.198591   12.533068   x
            x    C       290       39.079758    2.198165   12.533529   x
            x    C       291       55.221505    2.199203   12.531823   x
            x    C       292       57.915355    2.199345   12.530298   x
            x    C       293       47.150253    2.198789   12.531823   x
            x    C       294       41.773810    2.198109   12.532286   x
            x    C       295       49.845429    2.199139   12.530050   x
            x    C       296       18.903403    4.521123   12.512854   x
            x    C       297       13.520136    4.520728   12.512049   x
            x    C       298       10.826182    4.525265   12.521535   x
            x    C       299       26.974926    4.527958   12.525188   x
            x    C       300        5.448868    4.527576   12.522618   x
            x    C       301       21.597674    4.525756   12.520547   x
            x    C       302       59.255708    4.530121   12.533915   x
            x    C       303        2.755124    4.528744   12.526940   x
            x    C       304       35.045141    4.529054   12.536727   x
            x    C       305       61.949522    4.529949   12.534346   x
            x    C       306       29.668800    4.528693   12.526613   x
            x    C       307       43.114740    4.528791   12.534824   x
            x    C       308       51.186333    4.529562   12.534843   x
            x    C       309       37.739097    4.528927   12.533741   x
            x    C       310       53.880401    4.529793   12.531585   x
            x    C       311       45.808897    4.529012   12.534276   x
            x    C       312       22.939826    6.857463   12.520672   x
            x    C       313       63.290865    6.860188   12.537568   x
            x    C       314        6.790296    6.858205   12.522729   x
            x    C       315       31.009894    6.859128   12.531997   x
            x    C       316       39.079676    6.859269   12.535075   x
            x    C       317       57.915008    6.860475   12.532186   x
            x    C       318        1.414127    6.859360   12.528703   x
            x    C       319        9.484184    6.856832   12.518812   x
            x    C       320       25.633940    6.858723   12.522374   x
            x    C       321       33.703695    6.859453   12.537781   x
            x    C       322       55.221541    6.859753   12.530952   x
            x    C       323       47.150292    6.858479   12.534349   x
            x    C       324       41.773262    6.858585   12.530870   x
            x    C       325       49.844569    6.858789   12.532503   x
            x    C       326       51.186169    9.189060   12.529602   x
            x    C       327       59.256003    9.190443   12.535746   x
            x    C       328        2.755616    9.189963   12.525919   x
            x    C       329       26.974896    9.189835   12.522881   x
            x    C       330       35.045153    9.189759   12.540973   x
            x    C       331       43.113758    9.188701   12.528958   x
            x    C       332       53.880775    9.189693   12.526482   x
            x    C       333       61.949359    9.190592   12.537853   x
            x    C       334        5.449159    9.189345   12.520088   x
            x    C       335       21.602658    9.188776   12.511831   x
            x    C       336       29.668555    9.189991   12.526445   x
            x    C       337       37.738538    9.189332   12.535510   x
            x    C       338       45.808383    9.188538   12.528631   x
            x    C       339       10.822361    9.188192   12.514246   x
            x    C       340       47.149943   11.518725   12.531456   x
            x    C       341       55.221656   11.519837   12.527733   x
            x    C       342       63.291307   11.520782   12.539306   x
            x    C       343       31.009469   11.520931   12.534264   x
            x    C       344       39.079162   11.519204   12.532650   x
            x    C       345       49.844356   11.518998   12.529634   x
            x    C       346       57.915229   11.520213   12.530090   x
            x    C       347        1.414645   11.520965   12.530765   x
            x    C       348       33.703266   11.520237   12.539522   x
            x    C       349       41.772738   11.518841   12.527490   x
            x    C       350        6.790861   11.519901   12.521913   x
            x    C       351       22.939682   11.520543   12.519723   x
            x    C       352       25.633717   11.520613   12.521329   x
            x    C       353        9.484673   11.519916   12.517982   x
            x    C       354       45.808177   13.847924   12.533586   x
            x    C       355       43.113920   13.848412   12.532955   x
            x    C       356       51.186084   13.848327   12.534172   x
            x    C       357       59.256286   13.850493   12.533087   x
            x    C       358       35.044244   13.850557   12.538206   x
            x    C       359       53.880352   13.849272   12.529767   x
            x    C       360       61.950196   13.851037   12.535684   x
            x    C       361       29.668160   13.851464   12.528572   x
            x    C       362       37.738143   13.849652   12.532732   x
            x    C       363        2.756124   13.851162   12.528735   x
            x    C       364       26.974440   13.851744   12.523606   x
            x    C       365        5.449874   13.851024   12.521418   x
            x    C       366       10.826963   13.851186   12.518442   x
            x    C       367       47.149516   16.177978   12.537496   x
            x    C       368       55.221749   16.179898   12.534572   x
            x    C       369       41.772648   16.179115   12.535228   x
            x    C       370       49.844796   16.178199   12.535718   x
            x    C       371       39.078556   16.180138   12.534710   x
            x    C       372       63.291847   16.181451   12.535498   x
            x    C       373       31.008822   16.181727   12.534330   x
            x    C       374       57.915828   16.180910   12.531422   x
            x    C       375       33.702729   16.181277   12.534952   x
            x    C       376        6.791757   16.181315   12.522465   x
            x    C       377        1.415356   16.181364   12.531762   x
            x    C       378       25.632627   16.182169   12.521289   x
            x    C       379       22.937615   16.181986   12.520409   x
            x    C       380        9.486559   16.181271   12.518130   x
            x    C       381       51.186687   18.509015   12.533197   x
            x    C       382       45.807765   18.508668   12.531987   x
            x    C       383       43.113319   18.508972   12.536003   x
            x    C       384       53.881155   18.509569   12.533236   x
            x    C       385       35.043601   18.511238   12.535202   x
            x    C       386       59.257497   18.510941   12.533824   x
            x    C       387       37.737118   18.510455   12.533724   x
            x    C       388       61.950941   18.511355   12.532781   x
            x    C       389       29.667119   18.511718   12.532970   x
            x    C       390        2.757031   18.511143   12.533193   x
            x    C       391       26.972970   18.512679   12.528518   x
            x    C       392        5.451151   18.511738   12.526647   x
            x    C       393       10.828556   18.511194   12.518069   x
            x    C       394       18.900551   18.511313   12.519031   x
            x    C       395       21.595652   18.512131   12.517066   x
            x    C       396       13.523553   18.510998   12.516826   x
            x    C       397       47.149820   20.838966   12.526112   x
            x    C       398       49.844926   20.839203   12.524899   x
            x    C       399       55.222225   20.839679   12.531025   x
            x    C       400       41.772557   20.839074   12.530768   x
            x    C       401       31.008329   20.842084   12.536237   x
            x    C       402       39.078319   20.839665   12.534875   x
            x    C       403       63.292140   20.841047   12.534621   x
            x    C       404       33.702508   20.841202   12.534068   x
            x    C       405       57.916387   20.840142   12.531753   x
            x    C       406        1.415777   20.841415   12.533240   x
            x    C       407        6.792696   20.841158   12.529797   x
            x    C       408       22.936604   20.841442   12.523022   x
            x    C       409       25.631314   20.842196   12.528382   x
            x    C       410       14.864518   20.840484   12.519778   x
            x    C       411        9.487319   20.840438   12.522317   x
            x    C       412       17.559420   20.840794   12.518479   x
            x    C       413       51.186570   23.169588   12.525207   x
            x    C       414       45.808621   23.169324   12.523047   x
            x    C       415       43.114113   23.168989   12.525933   x
            x    C       416       59.257960   23.170452   12.532376   x
            x    C       417       37.736888   23.170091   12.532673   x
            x    C       418       53.881055   23.169469   12.524009   x
            x    C       419       26.972055   23.171372   12.537229   x
            x    C       420       35.043030   23.170943   12.534043   x
            x    C       421        2.757573   23.171501   12.533877   x
            x    C       422       29.666395   23.172332   12.533764   x
            x    C       423       61.951663   23.170862   12.531789   x
            x    C       424       10.828607   23.169556   12.531437   x
            x    C       425       18.900315   23.169892   12.527898   x
            x    C       426        5.451826   23.170297   12.534918   x
            x    C       427       21.595065   23.170524   12.529189   x
            x    C       428       13.523334   23.169386   12.526881   x
            x    C       429       55.222138   25.499343   12.524714   x
            x    C       430       31.008236   25.501540   12.531044   x
            x    C       431       39.078941   25.499541   12.530814   x
            x    C       432       63.292771   25.500622   12.531097   x
            x    C       433        6.792604   25.499577   12.540449   x
            x    C       434       25.630934   25.500660   12.539873   x
            x    C       435       33.701860   25.500845   12.529398   x
            x    C       436       41.773177   25.498823   12.524901   x
            x    C       437       57.916249   25.500006   12.526787   x
            x    C       438        1.415739   25.500811   12.529177   x
            x    C       439       22.936181   25.499747   12.541823   x
            x    C       440       14.864484   25.498957   12.537586   x
            x    C       441        9.487298   25.498653   12.540465   x
            x    C       442       17.558806   25.499201   12.536116   x
            x    C       443       18.899831   27.828903   12.542636   x
            x    C       444       26.972437   27.830290   12.539975   x
            x    C       445       35.043724   27.829927   12.532443   x
            x    C       446       59.257652   27.829609   12.530587   x
            x    C       447        2.756666   27.829749   12.532709   x
            x    C       448       10.828072   27.828579   12.544235   x
            x    C       449       21.595042   27.829505   12.543033   x
            x    C       450       29.667058   27.830494   12.531885   x
            x    C       451       37.737491   27.829192   12.531129   x
            x    C       452       53.880593   27.828736   12.524980   x
            x    C       453       61.951134   27.829906   12.531199   x
            x    C       454        5.451070   27.829207   12.537237   x
            x    C       455       13.523249   27.828402   12.541154   x
            x    C       456       43.115143   27.828096   12.527357   x
            x    C       457       14.864206   30.157892   12.536959   x
            x    C       458       22.936262   30.159525   12.540648   x
            x    C       459       31.008639   30.159260   12.531793   x
            x    C       460       63.292367   30.159319   12.532858   x
            x    C       461        6.792103   30.158701   12.539127   x
            x    C       462       17.558589   30.158240   12.535540   x
            x    C       463       25.631087   30.159740   12.538698   x
            x    C       464       33.702253   30.159334   12.530725   x
            x    C       465        1.415225   30.158714   12.530162   x
            x    C       466        9.486779   30.158582   12.539059   x
            x    C       467       39.079451   30.158385   12.530130   x
            x    C       468       55.222059   30.158474   12.524476   x
            x    C       469       57.916081   30.158980   12.526144   x
            x    C       470       41.773613   30.157850   12.524719   x
            x    C       471       13.522612   32.487180   12.528219   x
            x    C       472       10.827777   32.487435   12.531766   x
            x    C       473       18.900088   32.487656   12.529368   x
            x    C       474       26.972498   32.489018   12.536432   x
            x    C       475        2.756613   32.487954   12.534433   x
            x    C       476       21.595048   32.488262   12.529776   x
            x    C       477       29.666969   32.488431   12.533990   x
            x    C       478       61.950975   32.489075   12.533748   x
            x    C       479        5.450841   32.488185   12.534141   x
            x    C       480       35.043920   32.488754   12.535481   x
            x    C       481       59.257373   32.488973   12.531547   x
            x    C       482       37.737850   32.488304   12.531662   x
            x    C       483       43.114829   32.487404   12.524476   x
            x    C       484       14.863760   34.815931   12.525997   x
            x    C       485       22.936817   34.817397   12.526826   x
            x    C       486        9.486104   34.816575   12.526118   x
            x    C       487       17.558833   34.816174   12.524629   x
            x    C       488        6.791483   34.817023   12.531507   x
            x    C       489       31.009236   34.818448   12.537108   x
            x    C       490       63.291095   34.819104   12.536592   x
            x    C       491       25.631705   34.817760   12.530033   x
            x    C       492        1.414643   34.818304   12.534712   x
            x    C       493       39.079525   34.818357   12.530526   x
            x    C       494       33.703528   34.818733   12.535470   x
            x    C       495       57.915954   34.819262   12.527556   x
            x    C       496       55.221972   34.818540   12.524708   x
            x    C       497       41.773698   34.817694   12.523973   x
            x    C       498       18.900292   37.145585   12.527064   x
            x    C       499       13.522523   37.145179   12.525364   x
            x    C       500       10.827411   37.145453   12.526316   x
            x    C       501       21.595582   37.146120   12.524793   x
            x    C       502        2.755653   37.148454   12.533805   x
            x    C       503       26.973665   37.147193   12.531076   x
            x    C       504        5.449742   37.146670   12.529162   x
            x    C       505       29.667973   37.148612   12.533197   x
            x    C       506       61.949924   37.148951   12.533117   x
            x    C       507       35.044858   37.148265   12.535037   x
            x    C       508       59.256724   37.149015   12.531745   x
            x    C       509       37.738356   37.147974   12.531519   x
            x    C       510       43.114480   37.147732   12.527936   x
            x    C       511       51.187027   37.148110   12.525555   x
            x    C       512       53.881243   37.148612   12.525645   x
            x    C       513       45.808840   37.147652   12.523903   x
            xxxxxxxxxxxxxxxxxxxxxxxxxxxxxxxxxxxxxxxxxxxxxxxxxxxxxxxxxxxx
 

Determining parallel strategy ...
... using space-filling curve
... NGWF load balancing: max     20;  min     16;  average     16
... Projector load balancing: max      5;  min      4;  average      4
... done
Calculating Ewald energy ...
              Ewald: real-space energy =        29609.974439
        Ewald: reciprocal-space energy =       125721.999400
         Ewald: (sum_charge)**2 energy =         3416.015163
         Ewald: (sum_charge**2) energy =          301.678222
                          Ewald energy =       151614.280455
======================= Empirical dispersion information =======================
Model : Grimme D2
Dispersion Correction Energy: -0.17213007E+01 Hartree
================================================================================
Basis initialisation ...... NGWF spheres initialised
... Projector spheres initialised
... NGWF tight boxes initialised
... Tight-boxes gathered
... NGWF basis size (local,global):        256947     32376431
... Nonlocal pseudopotential projector initialisation
... done

========================== Sparse matrix information ===========================
                        Overlap matrix filling:  29.58%
                        Density kernel filling: 100.00% (known to be dense)
              NGWF-Proj overlap matrix filling:   7.31%
                    Hamiltonian matrix filling:  30.75%
                  NGWF diagonal matrix filling:   0.19%
                             KS matrix filling: 100.00% 
                           KSKS matrix filling: 100.00% 
================================================================================

Sparse matrix initialisation ... done

Generating smeared ion density ... done
Smeared ion self correction:     -4089.657052
Smeared ion non-self correction: -151629.347391
IS: Initialising Boltzmann terms in implicit solvation...
----------------------------------------------------------
|           Boltzmann ions in implicit solvent:          |
+--------------------------------------------------------+
|       Name | Charge |  Conc. (mol/L)  |  Conc. (a.u.)  |
|         Li |  1.000 |    0.10000E+01  |   0.89239E-04  |
|        PF6 | -1.000 |    0.10000E+01  |   0.89239E-04  |
----------------------------------------------------------

IS: Generating smoothed hard-core steric potential ...
IS: - smearing:        0.40000E+00 bohr.
---------------------------------------------------------------
|      Atomic hard-core steric potential radial cut-offs      |
+-------------------------------------------------------------+
|   Species |   Symbol |            Radial cut-off (bohr)     |
|           |          |     solute      solvent        total |
|         1 |       Li |   3.558867 +   3.000000 =   6.558867 |
|         2 |        C |   3.308495 +   3.000000 =   6.308495 |
---------------------------------------------------------------

IS: Debye length is    6.18 bohr. PB equation variant: FULL. Use_fas: F.
IS: Exp_cap:   50.00. Steric pot: SMOOTHED SPHERES.
NGWF initialisation ... done
============ Calculation of NGWF S^-1 using Hotelling algorithm ================ 
         Iteration  |  Frobenius norm and Maximum abs value    (of I-S*S_n^-1)   
               1       0.43989245E+02     0.98378506E+00
               2       0.42908006E+02     0.96789163E+00
               3       0.41247932E+02     0.93700529E+00
               4       0.39062560E+02     0.87850605E+00
               5       0.36479004E+02     0.77393265E+00
               6       0.33540923E+02     0.69342841E+00
               7       0.30499616E+02     0.64950962E+00
               8       0.27577666E+02     0.61153076E+00
               9       0.24491467E+02     0.56867774E+00
              10       0.20651456E+02     0.50292928E+00
              11       0.15657272E+02     0.39837862E+00
              12       0.98025156E+01     0.25527961E+00
              13       0.44013768E+01     0.11239506E+00
              14       0.10489266E+01     0.24647742E-01
              15       0.68377495E-01     0.14234867E-02
              16       0.33849371E-03     0.58410082E-05
              17       0.11338695E-07     0.13302925E-09
              18       0.61086820E-13     0.39968029E-14
================================================================================
Calculating core density ... ... done

Generating solute cavity for implicit solvation ... done
MG DL_MG: Calling solver with defect correction order = 8
MG DL_MG: Solver finished
MG Fixed charge (1/2 \int rho_f phi dr) energy term:                 617.164755
MG Mobile charge (1/2 \int rho_m phi dr) energy term:                 -0.000000
MG Osmotic pressure (-kT \int dr \sum_i c_i(r)) energy term:          -0.069059
MG Mobile ion acc. corr. (\int dr \sum_i c_i(r) * V_steric(r)):        0.000170
MG Ion atmosph. rearr. (kT \int dr \sum_i c_i(r)*ln(c_i(r)/c^0):      -0.000169
MG Chemical potential (-\sum_i \mu_i \int dr c_i(r)) energy term:      0.000000
MG                                                               --------------
MG Mean-field contribution to grand potential                        617.095696

MG Check from alternate expression:
MG Fixed charge (1/2 \int rho_f phi dr) energy term:                 617.164755
MG Minus mobile charge (-1/2 \int rho_m phi dr) energy term:           0.000000
MG -kTV\Gamma \sum_i c^bulk_i(r) (osmotic pressure) energy term:      -0.069059
MG                                                               --------------
MG Mean-field contribution to grand potential:                       617.095696

IS: MG box volume:     455016.600 a0^3. Accessible fraction: 0.900636. PBC.
IS: Charge neutralisation scheme: COUNTERIONS_AUTO.

+--------------------------- Chemical potential --------------------------+
|   # | Name | Bulk conc. |    mu_ideal   |   mu_excess   |    mu_total   |
|-------------------------------------------------------------------------|
|   1 |   Li |  1.0000057 |   0.000000005 |  -0.000000005 |   0.000000000 |
|   2 |  PF6 |  1.0000057 |   0.000000005 |  -0.000000005 |  -0.000000000 |
|-------------------------------------------------------------------------|

+----------------- Boltzmann ion concentration and charge -----------------+
|   # | Name | Bulk conc. | Average conc. | Neutr. ratio |    Total charge |
|--------------------------------------------------------------------------|
|   1 |   Li |  1.0000057 |   1.000005742 | -.200535E+09 |    36.570697552 | 
|   2 |  PF6 |  1.0000057 |   1.000005742 | 0.200535E+09 |   -36.570697552 | 
+--------------------------------------------------------------------------+
                                                    total:    -0.000000000*

+---- Concentration difference from bulk value on simcell faces (mol/L) ---+
|   # | Name | Face | Bulk conc. | Actual conc. |  Difference |  RMS diff. |
|--------------------------------------------------------------------------|
+         There are no fully electrolyte-accessible simcell faces.         +
+--------------------------------------------------------------------------+
Up spin density kernel initialisation ...... done
Down spin density kernel initialisation ...... done

Writing density kernel to file "graphite.dkn" ... done

>>> Optimising kernel for current NGWFs:

--------------------------- Ensemble-DFT optimisation --------------------------
Running ScaLAPACK on  128 processor(s).

Reusing previously generated solute cavity.
MG DL_MG: Calling solver with defect correction order = 8
MG DL_MG: Solver finished
MG Fixed charge (1/2 \int rho_f phi dr) energy term:                 585.691789
MG Mobile charge (1/2 \int rho_m phi dr) energy term:                 -0.227799
MG Osmotic pressure (-kT \int dr \sum_i c_i(r)) energy term:          -0.174810
MG Mobile ion acc. corr. (\int dr \sum_i c_i(r) * V_steric(r)):        0.060799
MG Ion atmosph. rearr. (kT \int dr \sum_i c_i(r)*ln(c_i(r)/c^0):       0.469800
MG Chemical potential (-\sum_i \mu_i \int dr c_i(r)) energy term:     -0.075001
MG                                                               --------------
MG Mean-field contribution to grand potential                        585.744778

MG Check from alternate expression:
MG Fixed charge (1/2 \int rho_f phi dr) energy term:                 585.691789
MG Minus mobile charge (-1/2 \int rho_m phi dr) energy term:           0.227799
MG -kTV\Gamma \sum_i c^bulk_i(r) (osmotic pressure) energy term:      -0.174809
MG                                                               --------------
MG Mean-field contribution to grand potential:                       585.744779

IS: MG box volume:     455016.600 a0^3. Accessible fraction: 0.900636. PBC.
IS: Charge neutralisation scheme: COUNTERIONS_AUTO.

+--------------------------- Chemical potential --------------------------+
|   # | Name | Bulk conc. |    mu_ideal   |   mu_excess   |    mu_total   |
|-------------------------------------------------------------------------|
|   1 |   Li |  4.4313892 |   0.001405620 |  -0.000865941 |   0.000539679 |
|   2 |  PF6 |  0.6312393 |  -0.000434391 |  -0.000105288 |  -0.000539679 |
|-------------------------------------------------------------------------|

+----------------- Boltzmann ion concentration and charge -----------------+
|   # | Name | Bulk conc. | Average conc. | Neutr. ratio |    Total charge |
|--------------------------------------------------------------------------|
|   1 |   Li |  4.4313892 |   4.431404821 |     0.902962 |   162.058634941 | 
|   2 |  PF6 |  0.6312393 |   0.631239426 |     0.097038 |   -23.084733597 | 
+--------------------------------------------------------------------------+
                                                    total:   138.973901344*

+---- Concentration difference from bulk value on simcell faces (mol/L) ---+
|   # | Name | Face | Bulk conc. | Actual conc. |  Difference |  RMS diff. |
|--------------------------------------------------------------------------|
+         There are no fully electrolyte-accessible simcell faces.         +
+--------------------------------------------------------------------------+

Reusing previously generated solute cavity.
MG DL_MG: Calling solver with defect correction order = 8
MG DL_MG: Solver finished
MG Fixed charge (1/2 \int rho_f phi dr) energy term:                 621.354417
MG Mobile charge (1/2 \int rho_m phi dr) energy term:                 -0.000115
MG Osmotic pressure (-kT \int dr \sum_i c_i(r)) energy term:          -0.069168
MG Mobile ion acc. corr. (\int dr \sum_i c_i(r) * V_steric(r)):        0.000183
MG Ion atmosph. rearr. (kT \int dr \sum_i c_i(r)*ln(c_i(r)/c^0):       0.000047
MG Chemical potential (-\sum_i \mu_i \int dr c_i(r)) energy term:      0.000000
MG                                                               --------------
MG Mean-field contribution to grand potential                        621.285364

MG Check from alternate expression:
MG Fixed charge (1/2 \int rho_f phi dr) energy term:                 621.354417
MG Minus mobile charge (-1/2 \int rho_m phi dr) energy term:           0.000115
MG -kTV\Gamma \sum_i c^bulk_i(r) (osmotic pressure) energy term:      -0.069168
MG                                                               --------------
MG Mean-field contribution to grand potential:                       621.285364

IS: MG box volume:     455016.600 a0^3. Accessible fraction: 0.900636. PBC.
IS: Charge neutralisation scheme: COUNTERIONS_AUTO.

+--------------------------- Chemical potential --------------------------+
|   # | Name | Bulk conc. |    mu_ideal   |   mu_excess   |    mu_total   |
|-------------------------------------------------------------------------|
|   1 |   Li |  1.0015903 |   0.000001500 |  -0.000001193 |   0.000000307 |
|   2 |  PF6 |  1.0015903 |   0.000001500 |  -0.000001808 |  -0.000000307 |
|-------------------------------------------------------------------------|

+----------------- Boltzmann ion concentration and charge -----------------+
|   # | Name | Bulk conc. | Average conc. | Neutr. ratio |    Total charge |
|--------------------------------------------------------------------------|
|   1 |   Li |  1.0015903 |   1.001590269 | -.993073E+11 |    36.628644485 | 
|   2 |  PF6 |  1.0015903 |   1.001590271 | 0.993073E+11 |   -36.628644573 | 
+--------------------------------------------------------------------------+
                                                    total:    -0.000000088*

+---- Concentration difference from bulk value on simcell faces (mol/L) ---+
|   # | Name | Face | Bulk conc. | Actual conc. |  Difference |  RMS diff. |
|--------------------------------------------------------------------------|
+         There are no fully electrolyte-accessible simcell faces.         +
+--------------------------------------------------------------------------+

--------------------------------------------------------------------------------
  Iter                              Commutator    Grand pot.(L=E-TS-muN)  DeltaL
#    0                          0.000116751567   -2635.96004156927529  -2.64E+03

Step                       =       0.381966011250
Energy (E)                 =   -2961.410899722803
Entropy (-TS)              =      -0.159915703995
Chemical potential (-muN)  =     325.610773857522
Grand potential(L=E-TS-muN)=   -2635.960041569275
Est. 0K Energy 0.5*(E+L)   =   -2798.685470646039
Charge on quantum system   =    -138.973335589149
Residual Non-orthogonality =      -0.000000000000

Spin          Integrated_Ne            Fermi_level   Delta_Integrated_Ne
   1      1025.500000000000        -0.158757081354              0.00E+00
   2      1025.500000000000        -0.158757081354             -2.27E-13

                           Spin 1           |                 Spin 2           |
     Orb |    H-eigenvalues     Occupancies |    H-eigenvalues     Occupancies |
       1 |    -1.8380773053    1.0000000000 |    -1.8380773053    1.0000000000 | 
                          ------                             ------
    1089 |    -0.1606011748    0.6228830315 |    -0.1606011748    0.6228830309 | 
    1090 |    -0.1604113896    0.6106773155 |    -0.1604113896    0.6106773150 | 
    1091 |    -0.1603818638    0.6087654496 |    -0.1603818638    0.6087654490 | 
    1092 |    -0.1593479428    0.5401090315 |    -0.1593479428    0.5401090309 | 
    1093 |    -0.1592194250    0.5314111092 |    -0.1592194250    0.5314111087 | 
                         Fermi level         |             Fermi level        
    1094 |    -0.1566961279    0.3633591432 |    -0.1566961279    0.3633591426 | 
    1095 |    -0.1566149313    0.3582635798 |    -0.1566149313    0.3582635792 | 
    1096 |    -0.1562577557    0.3362387340 |    -0.1562577557    0.3362387335 | 
    1097 |    -0.1562540940    0.3360163927 |    -0.1562540940    0.3360163921 | 
    1098 |    -0.1561379040    0.3289993289 |    -0.1561379040    0.3289993283 | 
                          ------                             ------
    2053 |     0.6065732896    0.0000000000 |     0.6065732896    0.0000000000 | 

                            |  Abs_value |  Threshold | Converged
     Delta_Free_energy/atom |   5.14E+00 |   1.00E-06 |        No
     Delta_Energy/atom      |   5.77E+00 |   1.00E-04 |        No
     Delta_Entropy/atom     |   3.12E-04 |   1.00E-04 |        No
     Commutator             |   1.17E-04 |   1.00E-05 |        No
     Delta_Int_Ne/atom      |   4.43E-16 |   1.00E-06 |       Yes

  Line search of the free energy minimum:
  Step_type        Step             Free_energy   Predicted_free_energy
.   Initial    0.000000    -2635.96004156927529

Reusing previously generated solute cavity.
MG DL_MG: Calling solver with defect correction order = 8
MG DL_MG: Solver finished
MG Fixed charge (1/2 \int rho_f phi dr) energy term:                 613.964312
MG Mobile charge (1/2 \int rho_m phi dr) energy term:                 -0.364192
MG Osmotic pressure (-kT \int dr \sum_i c_i(r)) energy term:          -0.222978
MG Mobile ion acc. corr. (\int dr \sum_i c_i(r) * V_steric(r)):        0.127020
MG Ion atmosph. rearr. (kT \int dr \sum_i c_i(r)*ln(c_i(r)/c^0):       0.738298
MG Chemical potential (-\sum_i \mu_i \int dr c_i(r)) energy term:     -0.136934
MG                                                               --------------
MG Mean-field contribution to grand potential                        614.105526

MG Check from alternate expression:
MG Fixed charge (1/2 \int rho_f phi dr) energy term:                 613.964312
MG Minus mobile charge (-1/2 \int rho_m phi dr) energy term:           0.364192
MG -kTV\Gamma \sum_i c^bulk_i(r) (osmotic pressure) energy term:      -0.222977
MG                                                               --------------
MG Mean-field contribution to grand potential:                       614.105527

IS: MG box volume:     455016.600 a0^3. Accessible fraction: 0.900636. PBC.
IS: Charge neutralisation scheme: COUNTERIONS_AUTO.

+--------------------------- Chemical potential --------------------------+
|   # | Name | Bulk conc. |    mu_ideal   |   mu_excess   |    mu_total   |
|-------------------------------------------------------------------------|
|   1 |   Li |  5.9253126 |   0.001679925 |  -0.000985627 |   0.000694299 |
|   2 |  PF6 |  0.5323091 |  -0.000595338 |  -0.000098961 |  -0.000694299 |
|-------------------------------------------------------------------------|

+----------------- Boltzmann ion concentration and charge -----------------+
|   # | Name | Bulk conc. | Average conc. | Neutr. ratio |    Total charge |
[...]
 C   231 -- C   241       -0.08      0.00      5.38274
 C     8 -- C    17       -0.08      0.00      5.38274
 C   425 -- C   428       -0.08      0.00      5.38275
 C   194 -- C   200       -0.08      0.00      5.38275
 C   183 -- C   193       -0.08      0.00      5.38276
 C   121 -- C   126       -0.08      0.00      5.38277
 C   210 -- C   216       -0.08      0.00      5.38277
 C   140 -- C   141       -0.08      0.00      5.38278
 C   402 -- C   404       -0.08      0.00      5.38278
 C   458 -- C   462       -0.08      0.00      5.38278
 C   268 -- C   394       -0.08     -0.00      5.38279
 C   164 -- C   175       -0.08      0.00      5.38279
 C   242 -- C   248       -0.08      0.00      5.38280
 C   391 -- C   395       -0.08      0.00      5.38280
 C    20 -- C    27       -0.08      0.00      5.38281
 C   149 -- C   160       -0.08      0.00      5.38282
 C   199 -- C   209       -0.08      0.00      5.38282
 C   174 -- C   176       -0.08      0.00      5.38282
 C   178 -- C   192       -0.08      0.00      5.38282
 C   493 -- C   494       -0.08      0.00      5.38283
 C   198 -- C   208       -0.08      0.00      5.38283
 C   401 -- C   409       -0.08      0.00      5.38284
 C    92 -- C    94       -0.08      0.00      5.38284
 C   431 -- C   435       -0.08      0.00      5.38285
 C    54 -- C    59       -0.08      0.00      5.38285
 C   215 -- C   225       -0.08      0.00      5.38285
 C   135 -- C   142       -0.08      0.00      5.38285
 C   464 -- C   467       -0.08      0.00      5.38287
 C     2 -- C     9       -0.08      0.00      5.38287
 C   226 -- C   232       -0.08      0.00      5.38288
 C   151 -- C   159       -0.08      0.00      5.38288
 C   109 -- C   110       -0.08      0.00      5.38291
 C   124 -- C   125       -0.08      0.00      5.38291
 C   247 -- C   257       -0.08      0.00      5.38291
 C   419 -- C   427       -0.08      0.00      5.38292
 C    19 -- C    26       -0.08      0.00      5.38293
 C    66 -- C    72       -0.08      0.00      5.38293
 C    85 -- C    91       -0.08      0.00      5.38294
 C    39 -- C    49       -0.08      0.00      5.38295
 C    53 -- C    58       -0.08      0.00      5.38295
 C   471 -- C   473       -0.08      0.00      5.38296
 C   444 -- C   449       -0.08      0.00      5.38296
 C    37 -- C    42       -0.08      0.00      5.38297
 C    69 -- C    75       -0.08      0.00      5.38297
 C   420 -- C   422       -0.08      0.00      5.38300
 C   489 -- C   491       -0.08      0.00      5.38301
 C   350 -- C   380       -0.08     -0.00      5.38304
 C   501 -- C   503       -0.08      0.00      5.38308
 C   477 -- C   480       -0.08      0.00      5.38308
 C   301 -- C   498       -0.08     -0.00      5.38312
 C   474 -- C   476       -0.08      0.00      5.38315
 C   430 -- C   434       -0.08      0.00      5.38315
 C   445 -- C   450       -0.08      0.00      5.38323
 C   459 -- C   463       -0.08      0.00      5.38326
 C   283 -- C   314       -0.08     -0.00      5.38328
 C   352 -- C   379       -0.08     -0.00      5.38331
 C   267 -- C   312       -0.08      0.00      5.38351
 C   261 -- C   351       -0.08      0.00      5.38353
 C   410 -- C   411       -0.08      0.00      5.38354
 C   282 -- C   320       -0.08     -0.00      5.38360
 C   266 -- C   319       -0.08      0.00      5.38363
 C   484 -- C   486       -0.08      0.00      5.38366
 C   408 -- C   412       -0.08      0.00      5.38366
 C   260 -- C   353       -0.08      0.00      5.38372
 C   485 -- C   487       -0.08      0.00      5.38400
 C   271 -- C   380       -0.08      0.00      5.38488
 C   272 -- C   379       -0.08      0.00      5.38518
 C   280 -- C   283       -0.08      0.00      5.38525
 C   394 -- C   396       -0.08      0.00      5.38552
 C   281 -- C   282       -0.08      0.00      5.38554
 C   498 -- C   499       -0.08      0.00      5.38592
 C   270 -- C   339       -0.08     -0.00      5.39570
 C   297 -- C   339       -0.08     -0.00      5.39592
 C   269 -- C   335       -0.08     -0.00      5.39621
 C   296 -- C   335       -0.08     -0.00      5.39671
 C   269 -- C   270       -0.08      0.00      5.39865
 C   296 -- C   297       -0.08      0.00      5.39927
 C   260 -- C   267       -0.07     -0.00      5.40399
 C   261 -- C   266       -0.07     -0.00      5.40422
 C   258 -- C   259       -0.07      0.00      5.40755
=============================================================


============== Orbital energy and occupancy information for spin 1 =============

      Total number of orbitals:    2053
        Occupancy sum (kernel):    1024.634424458
   Occupancy sum (eigenvalues):    1024.634424458
                 HOMO-LUMO gap:       0.028901540 Eh
                 Mid-gap level:      -0.149875551 Eh

                        Orbital | Energy (Eh) | Occupancy
                            1    -1.933474283   1.0000000
                        .......   ...........   .........
                         1016    -0.185170013   0.9992451
                         1017    -0.185004421   0.9992105
                         1018    -0.182217928   0.9983147
                         1019    -0.182211084   0.9983119
                         1020    -0.182015502   0.9982189
                         1021    -0.181977258   0.9982011
                         1022    -0.181491083   0.9979465
                         1023    -0.181432270   0.9979138
                         1024    -0.164420212   0.8237011
                         1025    -0.164326321   0.8199877
                        ....... -- gap at 0K -- .........
                         1026    -0.135424781   0.0017488
                         1027    -0.135377244   0.0017276
                         1028    -0.120229980   0.0000285
                         1029    -0.120209251   0.0000283
                         1030    -0.117501505   0.0000139
                         1031    -0.117294239   0.0000130
                         1032    -0.116410205   0.0000101
                         1033    -0.116294678   0.0000098
                         1034    -0.115989938   0.0000089
                         1035    -0.115854365   0.0000086
                        .......   ...........   .........
                         2053     0.763408155   0.0000000

================================================================================

============== Orbital energy and occupancy information for spin 2 =============

      Total number of orbitals:    2053
        Occupancy sum (kernel):    1024.634424434
   Occupancy sum (eigenvalues):    1024.634424434
                 HOMO-LUMO gap:       0.028901540 Eh
                 Mid-gap level:      -0.149875551 Eh

                        Orbital | Energy (Eh) | Occupancy
                            1    -1.933474283   1.0000000
                        .......   ...........   .........
                         1016    -0.185170013   0.9992451
                         1017    -0.185004421   0.9992105
                         1018    -0.182217928   0.9983147
                         1019    -0.182211084   0.9983119
                         1020    -0.182015502   0.9982189
                         1021    -0.181977258   0.9982011
                         1022    -0.181491083   0.9979465
                         1023    -0.181432270   0.9979138
                         1024    -0.164420212   0.8237010
                         1025    -0.164326321   0.8199877
                        ....... -- gap at 0K -- .........
                         1026    -0.135424781   0.0017488
                         1027    -0.135377244   0.0017276
                         1028    -0.120229980   0.0000285
                         1029    -0.120209251   0.0000283
                         1030    -0.117501505   0.0000139
                         1031    -0.117294239   0.0000130
                         1032    -0.116410205   0.0000101
                         1033    -0.116294678   0.0000098
                         1034    -0.115989938   0.0000089
                         1035    -0.115854365   0.0000086
                        .......   ...........   .........
                         2053     0.763408155   0.0000000

================================================================================

===================== Writing canonical molecular orbitals =====================
    Spin 1
| Orbital  Energy (eV)  Norm     |
| HOMO-5   -4.95289384  1.000000 | 
| HOMO-4   -4.95185317  1.000000 | 
| HOMO-3   -4.93862367  1.000000 | 
| HOMO-2   -4.93702328  1.000000 | 
| HOMO-1   -4.47410164  1.000000 | 
| HOMO     -4.47154673  1.000000 | 
| LUMO     -3.68509580  1.000000 | 
| LUMO+1   -3.68380224  1.000000 | 
| LUMO+2   -3.27162423  1.000000 | 
| LUMO+3   -3.27106016  1.000000 | 
| LUMO+4   -3.19737864  1.000000 | 
| LUMO+5   -3.19173864  1.000000 | 
================================================================================

===================== Writing canonical molecular orbitals =====================
    Spin 2
| Orbital  Energy (eV)  Norm     |
| HOMO-5   -4.95289384  1.000000 | 
| HOMO-4   -4.95185317  1.000000 | 
| HOMO-3   -4.93862367  1.000000 | 
| HOMO-2   -4.93702328  1.000000 | 
| HOMO-1   -4.47410164  1.000000 | 
| HOMO     -4.47154673  1.000000 | 
| LUMO     -3.68509580  1.000000 | 
| LUMO+1   -3.68380224  1.000000 | 
| LUMO+2   -3.27162423  1.000000 | 
| LUMO+3   -3.27106016  1.000000 | 
| LUMO+4   -3.19737864  1.000000 | 
| LUMO+5   -3.19173864  1.000000 | 
================================================================================
 
=============== Density of States (DOS) calculation for UP spin ================
Writing "graphite_UP_DOS.txt" ... done
================================================================================
 
============== Density of States (DOS) calculation for DOWN spin ===============
Writing "graphite_DN_DOS.txt" ... done
================================================================================
 
Writing bands to file "graphite.val_bands" ... done

IS: Calculating electrolyte contribution to the atomic forces ...
================================================================================
 
***********************************************************
********** Summary of Forces (values in Eh/a) *************
*                                                         *
* ---------------------- Minimum ------------------------ *
* Atom:       199, |F|min =    0.00000163                 *
* Components:     Fx|min       Fy|min       Fz|min        *
*              -0.00000150  -0.00000058   0.00000025      *
*                                                         *
* ---------------------- Maximum ------------------------ *
* Atom:         1, |F|max =    0.00059505                 *
* Components:     Fx|max       Fy|max       Fz|max        *
*              -0.00030963   0.00026612   0.00043290      *
*                                                         *
* ---------------- Root Mean Square Force --------------- *
*                  |F|rms =    0.00009764                 *
* Components:     Fx|rms       Fy|rms       Fz|rms        *
*               0.00005710   0.00004656   0.00006408      *
***********************************************************
 

                                                      hartree           kcal/mol
IS: NB: Energy of pure electrolyte:         -0.07688912992001         -48.248656

------------------------------ TIMING INFORMATION ------------------------------
AVERAGE TIME:   18248.127s on    128 proc(s)                                    
TOTAL TIME:     18248.132s on    128 proc(s)                                    
================= AVERAGE TIMINGS FROM ALL PROCS (CUMULATIVE) ==================
|| TAG                                    #calls    cpu time   %total  Gflops ||
|| linalg_invert_sym_matrix             :     4        0.00s   0.000%  ------ || (1 procs only)
|| density_fftbox_interp_mult_imbal     : 28680        0.00s   0.000%  ------ ||
|| onetep.F90 final imbalance           :     1        0.01s   0.000%  ------ ||
|| sparse_set_to_garbage                :   484        0.02s   0.000%  ------ ||
|| onetep.F90 main loop imbalance       :     1        0.04s   0.000%  ------ ||
|| ewald_calculate_forces_realspace     :    13        0.06s   0.000%  ------ ||
|| ngwfs_initialise_from_radial         :     2        0.06s   0.000%  ------ ||
|| vdwcorrection_calculate_forces       :    13        0.07s   0.000%  ------ ||
|| vdwcorrection_calculate_energy       :    13        0.10s   0.001%  ------ ||
|| basis_extract_function_from_box      :  2678        0.19s   0.001%  ------ ||
|| pseudopotentials_core_density        :    13        0.25s   0.001%  ------ ||
|| pseudopotentials_local_on_grid       :    13        0.25s   0.001%  ------ ||
|| sparse_spam3toblacs_real_fast_imbal  :  2644        0.32s   0.002%  ------ ||
|| parallel_prepare_fd_halos_alloc      : 62172        0.35s   0.002%  ------ ||
|| restart_hamiltonian_read             :    11        0.47s   0.003%  ------ ||
|| parallel_prepare_fd_halos_request    : 62172        0.59s   0.003%  ------ ||
|| pseudopotentials_nonlocal_mat        :    67        0.62s   0.003%  ------ ||
|| sparse_blacstospam3_real_fast_imbal  :  2584        0.76s   0.004%  ------ ||
|| smeared_ion_generate_potential_PBC   :    13        1.59s   0.009%  ------ ||
|| restart_hamiltonian_write            :    39        1.61s   0.009%  ------ ||
|| pseudo_make_structure_factor         :    13        1.81s   0.010%  ------ ||
|| sparse_spam3toblacs_real_fast_B2     : 338.4k       1.84s   0.010%  ------ ||
|| energy_and_force_init_cell           :     1        2.61s   0.014%  ------ ||
|| parallel_prepare_fd_halos_satisfy    : 62172        2.88s   0.016%  ------ ||
|| sparse_init                          :    13        3.64s   0.020%  ------ ||
|| eigenstates_calculate                :     1        4.01s   0.022%  ------ ||
|| ngwf_gradient_coeffs                 :    39        5.43s   0.030%  ------ ||
|| pseudo_local_calculate_forces        :    13        6.19s   0.034%  ------ ||
|| restart_kernel_write                 :    52        6.52s   0.036%  ------ ||
|| ewald_calculate_energy               :    13        6.75s   0.037%  ------ ||
|| integrals_grad_spam3                 :    13        7.88s   0.043%  ------ ||
|| nonsc_forces_ngwfs_calc              :    13        7.91s   0.043%  ------ ||
|| density_init_guess_real              :    13        8.09s   0.044%  ------ ||
|| sparse_embed_hotelling_invert_embed  :    67        8.54s   0.047%  ------ ||
|| pseudo_nlcc_calculate_forces         :    13        9.95s   0.055%  ------ ||
|| projectors_func_grad_ovlp_box_spam3  :    39       10.87s   0.060%  ------ ||
|| pseudo_nl_calculate_forces           :    13       12.03s   0.066%  ------ ||
|| restart_ngwfs_tightbox_input         :    11       14.90s   0.082%  ------ ||
|| fourier_filter_cell                  :   568       15.68s   0.086% 201.776 ||
|| sparse_trace                         :  9846       15.86s   0.087%  ------ ||
|| projectors_func_ovlp_box_spam3       :    67       17.67s   0.097%  ------ ||
|| ewald_calculate_forces_recipspace    :    13       21.51s   0.118%  ------ ||
|| ewald_calculate_forces               :    13       21.71s   0.119%  ------ ||
|| boltzmann_init_steric_pot            :    13       22.30s   0.122%  ------ ||
|| parallel_prepare_fd_halos_comms_imbal: 62172       24.03s   0.132%  ------ ||
|| parallel_prepare_fd_halos_clear      : 62172       25.11s   0.138%  ------ ||
|| projectors_init_fftbox_recip         :   262       25.39s   0.139%  ------ ||
|| properties_calculate                 :     1       25.61s   0.140%  ------ ||
|| fourier_apply_box_pair               :  3143       30.41s   0.167%  1.669k ||
|| basis_copy_function_to_box           : 33040       31.65s   0.173%  ------ ||
|| function_ops_brappd_ketppd_spam3     :   121       39.07s   0.214%  ------ ||
|| parallel_prepare_fd_halos_comms_wait : 62172       42.21s   0.231%  ------ ||
|| integrals_kinetic_spam3              :    67       57.97s   0.318%  ------ ||
|| fourier_interpolate_cell             :  1434       58.25s   0.319% 137.175 ||
|| sparse_product                       :  6015       61.34s   0.336%  ------ ||
|| projectors_gradient_batch            :   156       68.33s   0.374%  ------ ||
|| basis_dot_function_with_box          : 5.165M      94.95s   0.520%  ------ ||
|| parallel_prepare_fd_halos            : 62172       95.51s   0.523%  ------ ||
|| fourier_apply_cell_backward          :  5957       96.62s   0.529% 173.376 ||
|| sparse_spam3toblacs_real_fast_B1     : 338.4k      99.11s   0.543%  ------ ||
|| sparse_spam3toblacs_real_fast        :  2644      105.15s   0.576%  ------ ||
|| cell_grid_extract_box_real           : 11360      125.49s   0.688%  ------ ||
|| sparse_blacstospam3_real_fast        :  2584      159.00s   0.871%  ------ ||
|| restart_ngwfs_tightbox_output        :    32      214.10s   1.173%  ------ ||
|| xc_energy_potential                  :   730      217.67s   1.193%  ------ ||
|| fourier_apply_cell_forward           :  5905      249.28s   1.366%  66.615 ||
|| cell_grid_deposit_box_real           : 29290      268.84s   1.473%  ------ ||
|| finite_difference_derivative         : 62172      299.28s   1.640%  ------ ||
|| basis_add_function_to_box            : 17.01M     336.15s   1.842%  ------ ||
|| dense_eigensolve                     :  1240      348.27s   1.909%  ------ ||
|| ngwf_gradient_build_batch            :   156      404.11s   2.215%  ------ ||
|| edft_diag_ngwf_ham                   :  1238      444.84s   2.438%  ------ ||
|| hamiltonian_energy_components        :    17      516.54s   2.831%  ------ ||
|| integrals_locpot_mat_els_batch       :   980      550.72s   3.018%  ------ ||
|| implicit_solvent_boltzmann_forces    :    13      601.21s   3.295%  ------ ||
|| edft_apply_smearing_operator         :   619      664.08s   3.639%  ------ ||
|| ngwf_gradient_batch                  :   156      689.36s   3.778%  ------ ||
|| ngwf_gradient_lnv                    :    39      728.49s   3.992%  ------ ||
|| density_batch_row_sums               :  2868      816.14s   4.472%  ------ ||
|| density_fftbox_deposit_to_cell       : 28680     1164.55s   6.382%  ------ ||
|| smeared_ion_force_correction         :    26     1173.96s   6.433%  ------ ||
|| implicit_solvent_soft_sphere_forces  :    13     1233.26s   6.758%  ------ ||
|| potential_apply_to_ngwf_batch        :   980     1588.38s   8.704%  ------ ||
|| dl_mg_solver_calls                   :   717     1950.47s  10.689%  ------ ||
|| multigrid_calculate_hartree          :   717     2022.32s  11.082%  ------ ||
|| integrals_locpot_dbl_grid            :   490     2144.23s  11.750%  ------ ||
|| fourier_apply_box                    : 72080     2714.13s  14.873%  2.053k ||
|| forces_calculate                     :    13     3186.43s  17.462%  ------ ||
|| density_fftbox_interpolate_multiply  : 28680     3256.93s  17.848%  ------ ||
|| density_batch_interp_deposit         :  2868     5482.37s  30.043%  ------ ||
|| density_on_dbl_grid                  :  1434     6516.25s  35.709%  ------ ||
|| hamiltonian_lhxc_calculate           :   687     8934.69s  48.962%  ------ ||
|| edft_calculate                       :    39    11011.94s  60.346%  ------ ||
|| ngwf_cg_optimise                     :    13    12990.51s  71.188%  ------ ||
|| energy_and_forces                    :    13    18179.92s  99.626%  ------ ||
|| total_time                           :     1    18248.13s 100.000%  ------ ||
================================================================================
Overhead of generating timer report: 
- 0 ms averaging over threads,
- 16 ms ensuring consistency across MPI ranks,
- 58 ms printing in order.

Job completed: 18-10-2023 22:11 (+0100)

onetep_launcher: ONETEP seems to have finished correctly (zero exit code).
