 +---------------------------------------------------------------+
 |                                                               |
 |        ####### #     # ####### ####### ####### ######         |
 |        #     # ##    # #          #    #       #     #        |
 |        #     # # #   # #          #    #       #     #        |
 |        #     # #  #  # #####      #    #####   ######         |
 |        #     # #   # # #          #    #       #              |
 |        #     # #    ## #          #    #       #              |
 |        ####### #     # #######    #    ####### #              |
 |                                                               |
 |        Linear-Scaling Ab Initio Total Energy Program          |
 |                                                               |
 |          Release for academic collaborators of ODG            |
 |                                             Version 6.1.59    |
 | Remote: https://github.com/onetep-devel/onetep.git            |
 | Local branch: master                                          |
 | Commit ID: 3df6b8ca88fa1735659d3248d54c94b50edec21b           |
 | Date: Thu Oct 5 13:49:52 2023 +0200                           |
 | Working tree clean                                            |
 |                                                               |
 +---------------------------------------------------------------+
 |                                                               |
 |  Authors:                                                     |
 |  Jacek Dziedzic, Peter D. Haynes, Nicholas D. M. Hine,        |
 |  Arash A. Mostofi, Mike C. Payne and Chris-Kriton Skylaris    |
 |                                                               |
 |  Contributors:                                                |
 |  J. Aarons, L. Andrinopoulos, P. W. Avraam, R. A. Bell,       |
 |  A. Bhandari, G. A. Bramley, R. J. Charlton, S. J. Clark,     |
 |  R. J. Clements, G. C. Constantinescu, F. Corsetti,           |
 |  N. Corsini, O. Dieguez, S. M. M. Dubois, K. K. B. Duff,      |
 |  J. M. Escartin, M. Escobar Azor, A. Greco,                   |
 |  H. Helal, Q. O. Hill, L. P. Lee, J.-H. Li,                   |
 |  E. B. Linscott, G. Moynihan, D. D. O`Regan,                  |
 |  O. K. Okan, M. J. S. Phipps, C. J. Pickard,                  |
 |  J. C. A. Prentice, M. I. J. Probert, L. E. Ratcliff,         |
 |  M. Robinson, A. Ruiz Serrano, M. dos Santos Dias,            |
 |  J. S. Spencer, E. W. Tait, G. Teobaldi, D. Turban,           |
 |  V. Vitale, K. A. Wilkinson, C. Weber, J. C. Womack,          |
 |  N. Yeung and T. J. Zuehlsdorff                               |
 |                                                               |
 |                                   Copyright (c) 2004-2023     |
 |                                                               |
 |  Please cite:                                                 |
 |  "The ONETEP linear-scaling density functional theory program"|
 |   J. Chem. Phys. 152(17) 174111 (2020)                        |
 |                                                               |
 |          in all publications arising from your use of ONETEP. |
 |                                                               |
 +---------------------------------------------------------------+
 |                                                               |
 |   ONETEP is based on developments described in the following  |
 |   publications:                                               |
 |                                                               |
 |  "Nonorthogonal generalized Wannier function pseudopotential  |
 |   plane-wave method".                                         |
 |   C.-K. Skylaris, A. A. Mostofi, P. D. Haynes, O. Dieguez,    |
 |   M. C. Payne.                                                |
 |   Phys. Rev. B 66 035119 (2002).                              |
 |                                                               |
 |  "Preconditioned iterative minimization for linear-scaling    |
 |   electronic structure calculations".                         |
 |   A. A. Mostofi, P. D. Haynes, C.-K. Skylaris, M. C. Payne.   |
 |   J. Chem. Phys. 119(17), pp.8842-8848 (2003).                |
 |                                                               |
 |  "Total-energy calculations on a real space grid with         |
 |   localized functions and a plane-wave basis".                |
 |   A. A. Mostofi, C.-K. Skylaris, P. D. Haynes, M. C. Payne.   |
 |   Comput. Phys. Commun. 147, pp.788-802 (2002).               |
 |                                                               |
 |  "Accurate kinetic energy evaluation in electronic structure  |
 |   calculations with localized functions on real space grids"  |
 |   C.-K. Skylaris, A. A. Mostofi, P. D. Haynes, C. J. Pickard, |
 |   M. C. Payne.                                                |
 |   Comput. Phys. Commun. 140, pp.315-322 (2001).               |
 |                                                               |
 |  "Accurate ionic forces and geometry optimization in linear-  |
 |   scaling density-functional theory with local orbitals"      |
 |   N. D. M. Hine, M. Robinson, P. D. Haynes, C.-K. Skylaris,   |
 |   M. C. Payne, and A. A. Mostofi.                             |
 |   Phys. Rev. B 83 195102 (2011).                              |
 |                                                               |
 +---------------------------------------------------------------+

Job started: 31-10-2023 23:30 (+0000)
 
Reading parameters from file "graphite.dat" ...... done

If your calculation crashes here, before "Checking processes and threads..."
is displayed, then your stack size is insufficient.
If so, use "ulimit -s unlimited" at runtime.
You can disable this check with "check_stack_size F".

Checking processes and threads...
   Determining the default number of threads...
      No default threads set at compilation time: defaulting to 1.
      OpenMP library call suggests 8 threads.
      Hybrid MPI-OpenMP compilation detected.
      Number of MPI processes > 1.
      OMP_NUM_THREADS environment variable present and
      its value matches the one obtained from the OpenMP library call.
      Using this value as default.
      Default threads: 8
      Default applies to threads_max and threads_num_fftboxes.
      Settings in the input file override this default.
   ... done

   Running with 128 MPI processes.
   There are 16 MPI processes running on the same node as the root process.
   Each MPI process is using: 
               1 threads for simulation cell FFTs.
               1 threads for parallel FFT box operations.
               8 threads for loops over batched FFT box operations.
               8 threads in other parallel regions.
   MPI Interface: S1 (use mpi_f08) (-DMPI -DUSE_MPI_F08).
   MPI_ASYNC_PROTECTS_NONBLOCKING: Yes. MPI_SUBARRAYS_SUPPORTED: Yes.
   GPU Interface: None.
... done

Basic input checks...
Resetting ngwf_cg_rotate to TRUE for EDFT calculations
... done

Reading geometry and species blocks from file "graphite.dat" ...
  Reading POSITIONS geometry from str.xyz

  <species_atomic_set> block not found: NGWF initialisation set to SOLVE
IS: Dielectric excluded regions:
    - NONE.
IS: Assigning soft sphere radii for soft sphere solvation...
IS: No soft sphere radii specified. Default Alvarez radii used for all atoms.

----------- SOFT SPHERE RADII -----------
Li  5.333
C   4.442
-----------------------------------------

    
  Number of PPD points along a3 set to 1.  This is 
  the default value, it may have been provided also in the input file.
... done


--------------------------------------------------------------------------------
---------------------------------- INPUT FILE ----------------------------------
--------------------------------------------------------------------------------

task geometryoptimization                                                       
geom_method LBFGS                                                               
geom_continuation T                                                             
write_xyz T                                                                     
edft_grand_canonical T                                                          
edft_reference_potential  -4.42 eV                                              
edft_electrode_potential -0.10 V                                                
edft_nelec_thres 0.000001                                                       
is_dielectric_function soft_sphere                                              
is_implicit_solvent T                                                           
is_smeared_ion_rep T                                                            
is_include_apolar T                                                             
is_solvation_properties F                                                       
is_pbe                    full                                                  
is_pbe_temperature        298.15                                                
is_pbe_bc_debye_screening T                                                     
is_pbe_neutralisation_scheme counterions_auto                                   
is_pbe_energy_tolerance 1E+50                                                   
is_bc_coarseness 5                                                              
is_bc_threshold 1E-9                                                            
is_bulk_permittivity 90.7                                                       
is_solvent_surf_tension 0.0506 N/m                                              
%block sol_ions                                                                 
Li  +1 1.0                                                                      
PF6 -1 1.0                                                                      
%endblock sol_ions                                                              
is_steric_pot_type M                                                            
is_hc_steric_dens_isovalue  0.001                                               
is_hc_steric_smearing         0.4 bohr                                          
is_steric_write T                                                               
%block species_solvent_radius                                                   
Li 3.0                                                                          
C 3.0                                                                           
%endblock species_solvent_radius                                                
multigrid_bc:   P P P                                                           
ion_ion_bc:     P P P                                                           
pspot_bc:       P P P                                                           
smeared_ion_bc: P P P                                                           
mg_max_iters_vcycle 500                                                         
mg_vcyc_smoother_iter_pre 4                                                     
mg_vcyc_smoother_iter_post 4                                                    
mg_max_res_ratio 1000.0                                                         
mg_max_iters_newton 300                                                         
edft                    : T                                                     
edft_smearing_width     : 0.1 eV                                                
spin                    : 0.0                                                   
edft_spin_fix           : 2                                                     
spin_polarized          : T                                                     
cutoff_energy :  1000 eV                                                        
kernel_cutoff : 1000 bohr                                                       
xc_functional PBE                                                               
dispersion 4                                                                    
output_detail VERBOSE                                                           
do_properties T                                                                 
cube_format F                                                                   
dx_format F                                                                     
write_denskern T                                                                
write_tightbox_ngwfs T                                                          
write_hamiltonian T                                                             
%block species                                                                  
Li Li 3  5  8.0                                                                 
C  C  6  4  8.0                                                                 
%endblock species                                                               
%block species_pot                                                              
Li '/work/e89/e89/arihant/pseudo/Li.usp'                                        
C '/work/e89/e89/arihant/pseudo/C.usp'                                          
%endblock species_pot                                                           
%BLOCK LATTICE_CART                                                             
ang                                                                             
34.16920551     0.00000000     0.00000000                                       
0.00000000    19.72760000     0.00000000                                        
0.00000000     0.00000000   100.02798000                                        
%ENDBLOCK LATTICE_CART                                                          
positions_xyz_file str.xyz                                                      
     Hash =  -000007331127411900077080

--------------------------------------------------------------------------------
-------------------------------- END INPUT FILE --------------------------------
--------------------------------------------------------------------------------


 
 ESDF WARNING(1): "ispbeenergytolerance" (esdf_physical) has no units. Assume "hartree".
<<<<<<<<<<<<<<<<<<<<<<<<<<<<<<<<< Full system >>>>>>>>>>>>>>>>>>>>>>>>>>>>>>>>>>
<<<<<<<<<<<<<<<<<<<<<<<<< Pseudopotential information >>>>>>>>>>>>>>>>>>>>>>>>>>
File: /work/e89/e89/arihant/pseudo/Li.usp [ 2001 points up to Gmax=  52.9 (1/bohr)]
  Atomic number:  3;  ionic charge:  3.000000
    Shell 1: l = 0; rc = 1.19 bohr
    Shell 2: l = 0; rc = 1.25 bohr
File: /work/e89/e89/arihant/pseudo/C.usp [ 2001 points up to Gmax=  52.9 (1/bohr)]
  Atomic number:  6;  ionic charge:  4.000000
    Shell 1: l = 0; rc = 1.19 bohr
  Core charge supplied for Nonlinear Core Corrections
<<<<<<<<<<<<<<<<<<<<<<<<<<<<<<<<<<<<<<<<>>>>>>>>>>>>>>>>>>>>>>>>>>>>>>>>>>>>>>>>

-------------------------- Atom counting information ---------------------------
Symbol    Natoms    Nngwfs    Nprojs
  Li        48       240        96
  C        512      2048       512
.......   ......    ......    ......
Totals:    560      2288       608
--------------------------------------------------------------------------------

=============================== PSINC grid sizes ===============================
                      Simulation cell:  143 x  91 x 416
                              FFT-box:  117 x  91 x 117
                                  PPD:   11 x   7 x   1
Grid space d1=  0.451541543008a0 (KE cutoff=  37.25706Eh =1013.81618eV)
Grid space d2=  0.409667706512a0 (KE cutoff=  45.26271Eh =1231.66098eV)
Grid space d3=  0.454388192297a0 (KE cutoff=  36.79171Eh =1001.15326eV)
================================================================================
  
WARNING in cell_grid_distribute:
Average of less than one 23-slab per proc, so workload cannot be
equally balanced between procs.

********************* Fourier parallelisation information **********************
       Coarse grid (whole simulation cell) dimensions:    143    91   416
          Real-space ('12') slabs/proc (min max mean):      3     4     3
         Recip-space ('23') slabs/proc (min max mean):      0     1     0
********************************************************************************

********************* Fourier parallelisation information **********************
       Double grid (whole simulation cell) dimensions:    286   182   832
          Real-space ('12') slabs/proc (min max mean):      6     7     6
         Recip-space ('23') slabs/proc (min max mean):      1     2     1
********************************************************************************

********************* Fourier parallelisation information **********************
         Fine grid (whole simulation cell) dimensions:    288   184   832
          Real-space ('12') slabs/proc (min max mean):      6     7     6
         Recip-space ('23') slabs/proc (min max mean):      1     2     1
         Grid scale modified to satisfy multigrid solver grid constraints
         Grid scale values after modifification:         2.01  2.02  2.00
********************************************************************************
ONETEP fine grid is 288 x 184 x 832 gridpoints, 64.5704 x 37.2798 x 189.0255 bohr.
FD multigrid is     288 x 184 x 832 gridpoints, 64.5704 x 37.2798 x 189.0255 bohr.


Atom SCF Calculation for Li : Z (AE atom) =   3 : Z (PS atom) =   3
Config String:
Orbitals (num,occ):  3     2.00 1.00 0.00
Orbitals   (num,l):  3        0    0    1
Real-space Grid (nr,dr,rmax): 1343    0.0059612519    8.0000000000
Spherical Bessel Basis (nsws,lmax,cutoff):   37    1  220.4959463253
Confining potential (l,width,scale):  0    3.0000000000  100.0000000000
Confining potential (l,width,scale):  1    3.0000000000  100.0000000000
  1         -3.7050169094   -5.2301177776    2.5388568852   -0.9989538802
  2         -6.0510920273   -4.2679357854    3.2724001845   -1.3422946715
  3         -6.7975021434   -3.8722499620    3.6648237887   -1.5325279919
  4         -7.0147472228   -3.7673066376    3.7864613280   -1.5966989055
  5         -7.0774132854   -3.7446783348    3.8157063634   -1.6161454686
  6         -7.0951992563   -3.7420177453    3.8204515040   -1.6217593843
  7         -7.1001226024   -3.7430426481    3.8200527077   -1.6233132433
  8         -7.1014239576   -3.7441529610    3.8191274553   -1.6237164860
  9         -7.1017352306   -3.7448434699    3.8184905098   -1.6238077213
 10         -7.1017916056   -3.7452114113    3.8181373932   -1.6238209669
 11         -7.1017908912   -3.7453946820    3.8179578223   -1.6238181917
 12         -7.1017822190   -3.7454828903    3.8178702968   -1.6238141227
 13         -7.1017768840   -3.7455162316    3.8178369316   -1.6238119017
 14         -7.1017732849   -3.7455353767    3.8178176959   -1.6238104459
 15         -7.1017709700   -3.7455463461    3.8178066371   -1.6238095253
 16         -7.1017695244   -3.7455526225    3.8178002910   -1.6238089565
 17         -7.1017686390   -3.7455562110    3.8177966534   -1.6238086105
 18         -7.1017681040   -3.7455582619    3.8177945697   -1.6238084022
 19         -7.1017677838   -3.7455594341    3.8177933764   -1.6238082778
 20         -7.1017675934   -3.7455601042    3.8177926929   -1.6238082039
 21         -7.1017674808   -3.7455604874    3.8177923014   -1.6238081602
 22         -7.1017674145   -3.7455607066    3.8177920771   -1.6238081344
Atom SCF converged after  22 iterations to a total energy of     -7.10176741

Atom SCF Calculation for C  : Z (AE atom) =   6 : Z (PS atom) =   4
Config String:
Orbitals (num,occ):  2     2.00 2.00
Orbitals   (num,l):  2        0    1
Real-space Grid (nr,dr,rmax): 1343    0.0059612519    8.0000000000
Spherical Bessel Basis (nsws,lmax,cutoff):   37    1  220.4959463253
Confining potential (l,width,scale):  0    3.0000000000  100.0000000000
Confining potential (l,width,scale):  1    3.0000000000  100.0000000000
  1         -5.8177092822   -1.2555419264    4.5135233515   -1.7471920893
  2         -5.6032261188   -1.3440047989    4.4246587726   -1.7090653419
  3         -5.5936068668   -1.3561735374    4.4140765627   -1.7034094417
  4         -5.5958505747   -1.3587284552    4.4121342699   -1.7022848669
  5         -5.5969687665   -1.3601698222    4.4109982405   -1.7017057890
  6         -5.5975400979   -1.3609792837    4.4103423276   -1.7013975981
  7         -5.5978435204   -1.3614297943    4.4099696476   -1.7012314972
  8         -5.5980096069   -1.3616786122    4.4097605138   -1.7011416075
  9         -5.5981021113   -1.3618152853    4.4096441572   -1.7010929151
 10         -5.5981539939   -1.3618900852    4.4095797860   -1.7010665406
 11         -5.5981831160   -1.3619309228    4.4095443105   -1.7010522599
 12         -5.5981994243   -1.3619531807    4.4095248124   -1.7010445305
 13         -5.5982085235   -1.3619652972    4.4095141175   -1.7010403487
 14         -5.5982135796   -1.3619718867    4.4095082606   -1.7010380870
 15         -5.5982163780   -1.3619754676    4.4095050573   -1.7010368642
 16         -5.5982179208   -1.3619774123    4.4095033073   -1.7010362032
 17         -5.5982187685   -1.3619784678    4.4095023522   -1.7010358460
 18         -5.5982192328   -1.3619790404    4.4095018314   -1.7010356530
 19         -5.5982194864   -1.3619793509    4.4095015476   -1.7010355488
 20         -5.5982196245   -1.3619795192    4.4095013931   -1.7010354925
 21         -5.5982196995   -1.3619796104    4.4095013090   -1.7010354621
Atom SCF converged after  21 iterations to a total energy of     -5.59821970

BC: Task: GEOMETRYOPTIMIZATION
BC: +++++++++++++++ Summary of boundary conditions ++++++++++++++
BC: |       Component       |     Keyword     |   Periodicity   |
BC: |                       |                 |     X  Y  Z [1] |
BC: |-----------------------------------------------------------|
BC: | Ion-ion               | ion_ion_bc [2]  |     P  P  P     |
BC: | Local pseudopotential | pspot_bc [3]    |     P  P  P     |
BC: | Multigrid solver      | multigrid_bc    |     P  P  P     |
BC: | Smeared ions          | smeared_ion_bc  |     P  P  P     |
BC: | Van der Waals         | vdw_bc          |     P  P  P     |
BC: +++++++++++++++++++++++++++++++++++++++++++++++++++++++++++++
BC: P: Periodic, O: Open.
BC: [1] Not strictly along X, Y, Z but rather along lattice vectors A1, A2, A3.
BC: [2] Also affected by: pbc_correction_cutoff, cutoff_coulomb_type,
BC:     is_smeared_ion_rep, is_implicit_solvent, openbc_ion_ion.
BC: [3] Also affected by: is_smeared_ion_rep, is_implicit_solvent, openbc_pspot.

================================================================================
<<<<<<<<<<<<<<<< Resuming previous ONETEP Geometry Optimisation >>>>>>>>>>>>>>>>
================================================================================

 Geometry Optimisation: output file is "graphite.geom"
 
 Reading continuation file "graphite.continuation" ...done
 Geometry Optimisation: read_tightbox_ngwfs parameter over-ridden to TRUE
 Geometry Optimisation: read_hamiltonian parameter over-ridden to T
 
                           -------------------------------
                                     Cell Contents
                           -------------------------------
 
            xxxxxxxxxxxxxxxxxxxxxxxxxxxxxxxxxxxxxxxxxxxxxxxxxxxxxxxxxxxx
            x  Element    Atom      Absolute co-ordinates of atoms     x
            x            Number        x           y           z       x
            x----------------------------------------------------------x
            x    Li        1        0.047137   37.150336   16.398773   x
            x    Li        2        0.047311   27.827998   16.399556   x
            x    Li        3        0.046694   18.504164   16.398841   x
            x    Li        4        0.046347    9.187355   16.397775   x
            x    Li        5       32.403993   37.149355   16.399279   x
            x    Li        6       32.403656   27.828018   16.398219   x
            x    Li        7       32.405042   18.505262   16.399141   x
            x    Li        8       32.405498    9.187449   16.399890   x
            x    Li        9       16.233522    9.191504   16.387121   x
            x    Li       10       16.233597   18.498169   16.390768   x
            x    Li       11       16.233693   27.827621   16.398971   x
            x    Li       12       16.233484   37.153489   16.397363   x
            x    Li       13       48.481769   37.143213   16.391747   x
            x    Li       14       48.481755   27.831596   16.387894   x
            x    Li       15       48.481760   18.508390   16.398295   x
            x    Li       16       48.481714    9.187029   16.399825   x
            x    C        17       18.933957    9.196082   12.879672   x
            x    C        18       13.509329    9.196029   12.883308   x
            x    C        19       14.863856   11.540308   12.887998   x
            x    C        20       17.579328   11.540477   12.885060   x
            x    C        21       51.216009   27.836006   12.884474   x
            x    C        22       45.793610   27.835972   12.882132   x
            x    C        23       47.147897   30.180460   12.887837   x
            x    C        24       49.862492   30.180181   12.888144   x
            x    C        25       14.863532    6.850984   12.894667   x
            x    C        26       17.579666    6.850901   12.891672   x
            x    C        27       21.603989   13.856002   12.910423   x
            x    C        28       18.925036   13.855610   12.877421   x
            x    C        29       13.518047   13.855610   12.879893   x
            x    C        30       14.863559   16.171005   12.898979   x
            x    C        31       17.579576   16.170855   12.896026   x
            x    C        32       47.147540   25.490729   12.894111   x
            x    C        33       49.862730   25.491090   12.894203   x
            x    C        34       53.885878   32.496062   12.918461   x
            x    C        35       51.207163   32.495705   12.882895   x
            x    C        36       45.803062   32.495689   12.880391   x
            x    C        37       47.147569   34.810965   12.899105   x
            x    C        38       49.862671   34.811259   12.899127   x
            x    C        39       14.863717    2.220380   12.898578   x
            x    C        40       17.579326    2.220561   12.895705   x
            x    C        41       22.946791    2.201497   12.915542   x
            x    C        42        9.495731    2.201268   12.917765   x
            x    C        43       63.289155    2.220833   12.901887   x
            x    C        44        6.801020    2.201409   12.921279   x
            x    C        45       31.008057    2.220505   12.906823   x
            x    C        46        1.433814    2.220633   12.903829   x
            x    C        47       25.641272    2.201580   12.920144   x
            x    C        48       33.722801    2.220694   12.901845   x
            x    C        49       39.088632    2.201102   12.920130   x
            x    C        50       55.227967    2.201131   12.919168   x
            x    C        51       57.922259    2.201475   12.915188   x
            x    C        52       47.147893    2.220667   12.897317   x
            x    C        53       41.782580    2.201036   12.919103   x
            x    C        54       49.862232    2.220498   12.897172   x
            x    C        55       18.924972    4.535523   12.879786   x
            x    C        56       13.518087    4.535531   12.882259   x
            x    C        57       10.838744    4.535924   12.919307   x
            x    C        58       26.984130    4.536147   12.929125   x
            x    C        59        5.458142    4.536045   12.926697   x
            x    C        60       21.603971    4.536111   12.914501   x
            x    C        61       59.264994    4.536021   12.921200   x
            x    C        62        2.779213    4.535745   12.894749   x
            x    C        63       35.067689    4.535512   12.892282   x
            x    C        64       61.943834    4.535692   12.888686   x
            x    C        65       29.663039    4.535723   12.896744   x
            x    C        66       43.125133    4.535759   12.927526   x
            x    C        67       51.206604    4.535653   12.892029   x
            x    C        68       37.746046    4.535717   12.925562   x
            x    C        69       53.885256    4.535944   12.927261   x
            x    C        70       45.803386    4.535545   12.890248   x
            x    C        71       22.946917    6.870470   12.904391   x
            x    C        72       63.289030    6.850897   12.907245   x
            x    C        73        6.801270    6.870539   12.913188   x
            x    C        74       31.007465    6.851392   12.913457   x
            x    C        75       39.088844    6.870059   12.915351   x
            x    C        76       57.921956    6.870300   12.909985   x
            x    C        77        1.434474    6.851421   12.909279   x
            x    C        78        9.495624    6.870407   12.906647   x
            x    C        79       25.641063    6.870642   12.912189   x
            x    C        80       33.722956    6.850778   12.908450   x
            x    C        81       55.227935    6.870619   12.915704   x
            x    C        82       47.147528    6.850782   12.909101   x
            x    C        83       41.782504    6.870229   12.916079   x
            x    C        84       49.862493    6.851174   12.908891   x
            x    C        85       51.215491    9.196074   12.900310   x
            x    C        86       59.252200    9.196078   12.868629   x
            x    C        87        2.788105    9.196368   12.899228   x
            x    C        88       26.971932    9.196067   12.875015   x
            x    C        89       35.076964    9.196248   12.895689   x
            x    C        90       43.111958    9.195928   12.876020   x
            x    C        91       53.897507    9.196104   12.874473   x
            x    C        92       61.934667    9.196365   12.893436   x
            x    C        93        5.470299    9.195983   12.872132   x
            x    C        94       21.616476    9.195879   12.857389   x
            x    C        95       29.654063    9.196321   12.902544   x
            x    C        96       37.759105    9.195848   12.870792   x
            x    C        97       45.793788    9.195983   12.898809   x
            x    C        98       10.826533    9.195769   12.863099   x
            x    C        99       47.147816   11.540510   12.905106   x
            x    C       100       55.227900   11.521607   12.919834   x
            x    C       101       63.289496   11.541148   12.900395   x
            x    C       102       31.007664   11.540598   12.906230   x
            x    C       103       39.088454   11.521682   12.918331   x
            x    C       104       49.862181   11.540273   12.904879   x
            x    C       105       57.922333   11.521927   12.913226   x
            x    C       106        1.434326   11.540684   12.902178   x
            x    C       107       33.722522   11.541045   12.901464   x
            x    C       108       41.782459   11.521574   12.919936   x
            x    C       109        6.801190   11.521353   12.915181   x
            x    C       110       22.946684   11.521481   12.906524   x
            x    C       111       25.641228   11.521469   12.914021   x
            x    C       112        9.495912   11.521346   12.908856   x
            x    C       113       45.803131   13.855425   12.894804   x
            x    C       114       43.124799   13.856180   12.928848   x
            x    C       115       51.206737   13.855539   12.896488   x
            x    C       116       59.265120   13.856572   12.919382   x
            x    C       117       35.067542   13.856005   12.890839   x
            x    C       118       53.885403   13.856353   12.928655   x
            x    C       119       61.944016   13.856098   12.887502   x
            x    C       120       29.662800   13.856011   12.894484   x
            x    C       121       37.745908   13.856436   12.923536   x
            x    C       122        2.779593   13.855978   12.892737   x
            x    C       123       26.983875   13.856292   12.925134   x
            x    C       124        5.458503   13.856213   12.922839   x
            x    C       125       10.838841   13.855994   12.915235   x
            x    C       126       47.147401   16.170603   12.911322   x
            x    C       127       55.228401   16.190796   12.916520   x
            x    C       128       41.781993   16.190519   12.916600   x
            x    C       129       49.862523   16.170908   12.911271   x
            x    C       130       39.088523   16.190770   12.915196   x
            x    C       131       63.289131   16.171213   12.907586   x
            x    C       132       31.007574   16.171464   12.911896   x
            x    C       133       57.922254   16.190806   12.910275   x
            x    C       134       33.722898   16.171164   12.907372   x
            x    C       135        6.801409   16.190622   12.911751   x
            x    C       136        1.434403   16.171347   12.909097   x
            x    C       137       25.641015   16.190664   12.910503   x
            x    C       138       22.946799   16.190385   12.904574   x
            x    C       139        9.495797   16.190415   12.906927   x
            x    C       140       51.215889   18.515745   12.899919   x
            x    C       141       45.793422   18.515760   12.898126   x
            x    C       142       43.111502   18.515827   12.876447   x
            x    C       143       53.898030   18.515919   12.875307   x
            x    C       144       35.077100   18.516301   12.895541   x
            x    C       145       59.252427   18.516257   12.871033   x
            x    C       146       37.758859   18.516249   12.872052   x
            x    C       147       61.934488   18.516304   12.895339   x
            x    C       148       29.654125   18.516160   12.901933   x
            x    C       149        2.788064   18.516165   12.900320   x
            x    C       150       26.971851   18.515831   12.875968   x
            x    C       151        5.470362   18.515803   12.874030   x
            x    C       152       10.826847   18.515777   12.869477   x
            x    C       153       18.933830   18.516016   12.887064   x
            x    C       154       21.616128   18.515815   12.863465   x
            x    C       155       13.509415   18.516022   12.890911   x
            x    C       156       47.147697   20.860201   12.898543   x
            x    C       157       49.862349   20.859983   12.898535   x
            x    C       158       55.228443   20.841187   12.919713   x
            x    C       159       41.781977   20.841242   12.918780   x
            x    C       160       31.008056   20.860109   12.905932   x
            x    C       161       39.088165   20.841536   12.919202   x
            x    C       162       63.289216   20.860666   12.902694   x
            x    C       163       33.722785   20.860742   12.901171   x
            x    C       164       57.922631   20.841632   12.915410   x
            x    C       165        1.433870   20.860140   12.904451   x
            x    C       166        6.801534   20.840853   12.921859   x
            x    C       167       22.946169   20.841027   12.914721   x
            x    C       168       25.640854   20.840993   12.919728   x
            x    C       169       14.863986   20.860255   12.897420   x
            x    C       170        9.496421   20.840919   12.917872   x
            x    C       171       17.579177   20.860379   12.894149   x
            x    C       172       51.207009   23.175323   12.884787   x
            x    C       173       45.803023   23.175272   12.882439   x
            x    C       174       43.124539   23.175881   12.921093   x
            x    C       175       59.265241   23.176040   12.920930   x
            x    C       176       37.745806   23.176038   12.922988   x
            x    C       177       53.885756   23.175919   12.922327   x
            x    C       178       26.983924   23.175739   12.929618   x
            x    C       179       35.067650   23.175542   12.890799   x
            x    C       180        2.779085   23.175387   12.896164   x
            x    C       181       29.663166   23.175402   12.895327   x
            x    C       182       61.943797   23.175514   12.889962   x
            x    C       183       10.839444   23.175630   12.925693   x
            x    C       184       18.924375   23.175387   12.886562   x
            x    C       185        5.458381   23.175577   12.929188   x
            x    C       186       21.603288   23.175709   12.919590   x
            x    C       187       13.518665   23.175345   12.889840   x
            x    C       188       55.228624   25.510452   12.909332   x
            x    C       189       31.007932   25.491159   12.911059   x
            x    C       190       39.088429   25.510324   12.911470   x
            x    C       191       63.288490   25.490862   12.909182   x
            x    C       192        6.801661   25.510148   12.918042   x
            x    C       193       25.640572   25.510238   12.915162   x
            x    C       194       33.723373   25.490874   12.906425   x
            x    C       195       41.781865   25.510294   12.907979   x
            x    C       196       57.922405   25.510354   12.908310   x
            x    C       197        1.433885   25.491089   12.910990   x
            x    C       198       22.946148   25.510302   12.912059   x
            x    C       199       14.863620   25.490891   12.909179   x
            x    C       200        9.496305   25.510221   12.915667   x
            x    C       201       17.579433   25.490776   12.905847   x
            x    C       202       18.933518   27.836093   12.895777   x
            x    C       203       26.971685   27.835904   12.875913   x
            x    C       204       35.077378   27.836215   12.893805   x
            x    C       205       59.252307   27.836003   12.868754   x
            x    C       206        2.787513   27.836194   12.901048   x
            x    C       207       10.827082   27.835797   12.876244   x
            x    C       208       21.615728   27.835941   12.869720   x
            x    C       209       29.654487   27.836203   12.900612   x
            x    C       210       37.758961   27.835861   12.868372   x
            x    C       211       53.898334   27.835793   12.863513   x
            x    C       212       61.934088   27.836309   12.895393   x
            x    C       213        5.470373   27.835814   12.875510   x
            x    C       214       13.509612   27.835912   12.899802   x
            x    C       215       43.111475   27.835700   12.863777   x
            x    C       216       14.863892   30.180317   12.905155   x
            x    C       217       22.946153   30.161519   12.916118   x
            x    C       218       31.008291   30.180625   12.904337   x
            x    C       219       63.288724   30.181039   12.902171   x
            x    C       220        6.801290   30.161452   12.921183   x
            x    C       221       17.579142   30.180606   12.901902   x
            x    C       222       25.640920   30.161620   12.918511   x
            x    C       223       33.723161   30.180951   12.899610   x
            x    C       224        1.433503   30.180681   12.904141   x
            x    C       225        9.496271   30.161366   12.919511   x
            x    C       226       39.088262   30.161368   12.913585   x
            x    C       227       55.228456   30.161399   12.911611   x
            x    C       228       57.922616   30.161673   12.910205   x
            x    C       229       41.782096   30.161324   12.910388   x
            x    C       230       13.518389   32.495517   12.894175   x
            x    C       231       10.839158   32.496100   12.926687   x
            x    C       232       18.924596   32.495697   12.891134   x
            x    C       233       26.983984   32.496517   12.927876   x
            x    C       234        2.778890   32.496050   12.894725   x
            x    C       235       21.603570   32.496249   12.920927   x
            x    C       236       29.663242   32.496066   12.894189   x
            x    C       237       61.943552   32.496113   12.887839   x
            x    C       238        5.458172   32.496416   12.927055   x
            x    C       239       35.067969   32.495940   12.889076   x
            x    C       240       59.265003   32.496310   12.916836   x
            x    C       241       37.746095   32.496066   12.919340   x
            x    C       242       43.124648   32.495843   12.917218   x
            x    C       243       14.863524   34.810864   12.911486   x
            x    C       244       22.946651   34.830622   12.912020   x
            x    C       245        9.495806   34.830447   12.915084   x
            x    C       246       17.579517   34.810837   12.908375   x
            x    C       247        6.801358   34.830797   12.916730   x
            x    C       248       31.007946   34.811649   12.911805   x
            x    C       249       63.288601   34.811136   12.907978   x
            x    C       250       25.640890   34.830921   12.914738   x
            x    C       251        1.433839   34.811566   12.909990   x
            x    C       252       39.088506   34.830312   12.909570   x
            x    C       253       33.723269   34.810973   12.906735   x
            x    C       254       57.922472   34.830563   12.905639   x
            x    C       255       55.228583   34.830541   12.908787   x
            x    C       256       41.782081   34.830160   12.907792   x
            x    C       257       18.933982   37.155855   12.895145   x
            x    C       258       13.509197   37.155743   12.898848   x
            x    C       259       10.826614   37.155642   12.875691   x
            x    C       260       21.616274   37.155876   12.869831   x
            x    C       261        2.787625   37.156224   12.900863   x
            x    C       262       26.972019   37.156209   12.877950   x
            x    C       263        5.470078   37.155993   12.875895   x
            x    C       264       29.654382   37.156270   12.902570   x
            x    C       265       61.934252   37.156246   12.894811   x
            x    C       266       35.077352   37.156055   12.895241   x
            x    C       267       59.252367   37.155941   12.869199   x
            x    C       268       37.759002   37.155625   12.870198   x
            x    C       269       43.111767   37.155635   12.869891   x
            x    C       270       51.215797   37.156108   12.891904   x
            x    C       271       53.897909   37.155843   12.869103   x
            x    C       272       45.793675   37.155988   12.890155   x
            x    Li      273        0.056716   37.130522    9.427340   x
            x    Li      274        0.057029   27.809599    9.427838   x
            x    Li      275        0.057018   18.487362    9.427293   x
            x    Li      276        0.056920    9.168354    9.426022   x
            x    Li      277        8.140474   32.469389    9.417007   x
            x    Li      278        8.140652   23.151842    9.417712   x
            x    Li      279        8.139709   13.833189    9.409551   x
            x    Li      280        8.140346    4.509411    9.413687   x
            x    Li      281       16.226072    9.167023    9.411304   x
            x    Li      282       16.225967   18.487864    9.418152   x
            x    Li      283       16.225935   27.809706    9.427354   x
            x    Li      284       16.226194   37.130808    9.425818   x
            x    Li      285       24.311960   32.469534    9.414262   x
            x    Li      286       24.312071   23.151617    9.414742   x
            x    Li      287       24.313183   13.833161    9.407916   x
            x    Li      288       24.312419    4.509460    9.412093   x
            x    Li      289       32.382767   37.130809    9.427359   x
            x    Li      290       32.382346   27.809460    9.425868   x
            x    Li      291       32.382340   18.487003    9.427268   x
            x    Li      292       32.382522    9.168231    9.428048   x
            x    Li      293       40.440681   32.469613    9.408748   x
            x    Li      294       40.441432   23.151399    9.412887   x
            x    Li      295       40.441773   13.832913    9.416010   x
            x    Li      296       40.441638    4.509635    9.416741   x
            x    Li      297       48.489123   37.131507    9.418276   x
            x    Li      298       48.489184   27.808339    9.411159   x
            x    Li      299       48.489160   18.487298    9.425861   x
            x    Li      300       48.488846    9.168100    9.427385   x
            x    Li      301       56.548888   32.469678    9.407676   x
            x    Li      302       56.548090   23.151624    9.411996   x
            x    Li      303       56.547860   13.832923    9.413772   x
            x    Li      304       56.547801    4.509901    9.414140   x
            x    C       305       18.916434    9.193847    5.871052   x
            x    C       306       13.524868    9.193717    5.870838   x
            x    C       307       14.869837   11.529469    5.880219   x
            x    C       308       17.571453   11.529586    5.878618   x
            x    C       309       51.200930   27.833636    5.871295   x
            x    C       310       45.809863   27.833584    5.866873   x
            x    C       311       47.154825   30.169366    5.878110   x
            x    C       312       49.856222   30.169299    5.878749   x
            x    C       313       14.869663    6.857632    5.873355   x
            x    C       314       17.571611    6.857700    5.871770   x
            x    C       315       21.598304   13.854106    5.855042   x
            x    C       316       18.910400   13.853968    5.888146   x
            x    C       317       13.530938   13.853883    5.887264   x
            x    C       318       14.869707   16.178296    5.878489   x
            x    C       319       17.571500   16.178294    5.876888   x
            x    C       320       47.154644   25.497491    5.871359   x
            x    C       321       49.856324   25.497644    5.871923   x
            x    C       322       53.882448   32.494052    5.850061   x
            x    C       323       51.194730   32.493854    5.886816   x
            x    C       324       45.816274   32.493756    5.884973   x
            x    C       325       47.154728   34.818085    5.877241   x
            x    C       326       49.856309   34.818275    5.877885   x
            x    C       327       14.869877    2.208952    5.886713   x
            x    C       328       17.571302    2.209031    5.885052   x
            x    C       329       22.942426    2.198122    5.853282   x
            x    C       330        9.498628    2.197920    5.852981   x
            x    C       331       63.297211    2.209576    5.890384   x
            x    C       332        6.798141    2.198052    5.854843   x
            x    C       333       31.013157    2.209617    5.892477   x
            x    C       334        1.427766    2.209580    5.891768   x
            x    C       335       25.642842    2.198213    5.851438   x
            x    C       336       33.714119    2.209389    5.889267   x
            x    C       337       39.084558    2.197982    5.855165   x
            x    C       338       55.226267    2.198196    5.849504   x
            x    C       339       57.926613    2.198389    5.852982   x
            x    C       340       47.154933    2.209741    5.882642   x
            x    C       341       41.784842    2.198045    5.851564   x
            x    C       342       49.855963    2.209723    5.882778   x
            x    C       343       18.910365    4.533340    5.887748   x
            x    C       344       13.530924    4.533257    5.886937   x
            x    C       345       10.842922    4.533549    5.858575   x
            x    C       346       26.987299    4.533917    5.859344   x
            x    C       347        5.453764    4.533737    5.860534   x
            x    C       348       21.598350    4.533707    5.857235   x
            x    C       349       59.270656    4.533962    5.864165   x
            x    C       350        2.766326    4.533728    5.897030   x
            x    C       351       35.052668    4.533569    5.896103   x
            x    C       352       61.958481    4.533778    5.894727   x
            x    C       353       29.674713    4.533796    5.895126   x
            x    C       354       43.129134    4.533712    5.860630   x
            x    C       355       51.194109    4.533917    5.890993   x
            x    C       356       37.740408    4.533608    5.862585   x
            x    C       357       53.881642    4.533927    5.855465   x
            x    C       358       45.816625    4.533775    5.890110   x
            x    C       359       22.942677    6.869162    5.854414   x
            x    C       360       63.297201    6.858084    5.885006   x
            x    C       361        6.798319    6.869163    5.857134   x
            x    C       362       31.012689    6.858224    5.888309   x
            x    C       363       39.084823    6.869119    5.860937   x
            x    C       364       57.926185    6.869369    5.858510   x
            x    C       365        1.428307    6.858252    5.886277   x
            x    C       366        9.498422    6.868975    5.854066   x
            x    C       367       25.642718    6.869409    5.853965   x
            x    C       368       33.714151    6.857935    5.885479   x
            x    C       369       55.225983    6.869545    5.856898   x
            x    C       370       47.154776    6.857920    5.884222   x
            x    C       371       41.784923    6.869190    5.858940   x
            x    C       372       49.855982    6.858136    5.884387   x
            x    C       373       51.200160    9.193909    5.884456   x
            x    C       374       59.264138    9.194118    5.879502   x
            x    C       375        2.772789    9.194131    5.884696   x
            x    C       376       26.980407    9.193984    5.877705   x
            x    C       377       35.058733    9.194137    5.882258   x
            x    C       378       43.122510    9.193776    5.880522   x
            x    C       379       53.888117    9.193987    5.878225   x
            x    C       380       61.952553    9.194316    5.879276   x
            x    C       381        5.460675    9.193802    5.878181   x
            x    C       382       21.604755    9.193764    5.871842   x
            x    C       383       29.668269    9.194148    5.883534   x
            x    C       384       37.747041    9.193874    5.879506   x
            x    C       385       45.810396    9.193794    5.880682   x
            x    C       386       10.836472    9.193565    5.873900   x
            x    C       387       47.154859   11.529357    5.890999   x
            x    C       388       55.225882   11.518415    5.851826   x
            x    C       389       63.297476   11.530153    5.889072   x
            x    C       390       31.012691   11.529777    5.891982   x
            x    C       391       39.084592   11.518544    5.855020   x
            x    C       392       49.855803   11.529294    5.891201   x
            x    C       393       57.926459   11.518801    5.852832   x
            x    C       394        1.428326   11.529806    5.890043   x
            x    C       395       33.713865   11.529955    5.889470   x
            x    C       396       41.785009   11.518335    5.853553   x
            x    C       397        6.798258   11.518238    5.850059   x
            x    C       398       22.942480   11.518406    5.848151   x
            x    C       399       25.642900   11.518428    5.846787   x
            x    C       400        9.498700   11.518185    5.847883   x
            x    C       401       45.816497   13.853448    5.894424   x
            x    C       402       43.129021   13.853954    5.861576   x
            x    C       403       51.194145   13.853536    5.895452   x
            x    C       404       59.270680   13.854531    5.862925   x
            x    C       405       35.052539   13.854238    5.895064   x
            x    C       406       53.881658   13.854168    5.856908   x
            x    C       407       61.958547   13.854404    5.893622   x
            x    C       408       29.674476   13.854175    5.892780   x
            x    C       409       37.740273   13.854317    5.861029   x
            x    C       410        2.766718   13.854187    5.894808   x
            x    C       411       26.987126   13.854308    5.855272   x
            x    C       412        5.454106   13.854134    5.856556   x
            x    C       413       10.843031   13.853948    5.856404   x
            x    C       414       47.154680   16.177498    5.886215   x
            x    C       415       55.226505   16.189628    5.856250   x
            x    C       416       41.784481   16.189357    5.857783   x
            x    C       417       49.856077   16.177668    5.886435   x
            x    C       418       39.084545   16.189652    5.859693   x
            x    C       419       63.297277   16.178514    5.885211   x
            x    C       420       31.012767   16.178407    5.886829   x
            x    C       421       57.926493   16.189791    5.857910   x
            x    C       422       33.714060   16.178443    5.884369   x
            x    C       423        6.798604   16.189567    5.854905   x
            x    C       424        1.428271   16.178429    5.885982   x
            x    C       425       25.642550   16.189728    5.851316   x
            x    C       426       22.942524   16.189541    5.853048   x
            x    C       427        9.498679   16.189432    5.852798   x
            x    C       428       51.200651   18.513420    5.883206   x
            x    C       429       45.810011   18.513358    5.879213   x
            x    C       430       43.121988   18.513564    5.879154   x
            x    C       431       53.888737   18.513693    5.877464   x
            x    C       432       35.058772   18.514105    5.882112   x
            x    C       433       59.264494   18.514078    5.880729   x
            x    C       434       37.746636   18.513905    5.879579   x
            x    C       435       61.952475   18.514192    5.880783   x
            x    C       436       29.668394   18.514066    5.883318   x
            x    C       437        2.772720   18.514019    5.885975   x
            x    C       438       26.980403   18.513847    5.878197   x
            x    C       439        5.460732   18.513739    5.879555   x
            x    C       440       10.836901   18.513753    5.876878   x
            x    C       441       18.916201   18.514218    5.875699   x
            x    C       442       21.604425   18.513875    5.874531   x
            x    C       443       13.525121   18.514190    5.875598   x
            x    C       444       47.154789   20.848841    5.885442   x
            x    C       445       49.855991   20.848750    5.885872   x
            x    C       446       55.226768   20.837820    5.850813   x
            x    C       447       41.784189   20.837726    5.851504   x
            x    C       448       31.013023   20.849258    5.892506   x
            x    C       449       39.083964   20.838022    5.854971   x
            x    C       450       63.297325   20.849559    5.891322   x
            x    C       451       33.714019   20.849527    5.889711   x
            x    C       452       57.927114   20.838247    5.853935   x
            x    C       453        1.427978   20.849242    5.892501   x
            x    C       454        6.798812   20.837820    5.855702   x
            x    C       455       22.941889   20.838227    5.853114   x
            x    C       456       25.642353   20.837977    5.851466   x
            x    C       457       14.869991   20.849698    5.885359   x
            x    C       458        9.499285   20.838052    5.853750   x
            x    C       459       17.571277   20.849705    5.883420   x
            x    C       460       51.194664   23.173149    5.886371   x
            x    C       461       45.816139   23.173130    5.884643   x
            x    C       462       43.128383   23.173398    5.855703   x
            x    C       463       59.271194   23.173751    5.863816   x
            x    C       464       37.739867   23.173672    5.860611   x
            x    C       465       53.882414   23.173520    5.852288   x
            x    C       466       26.986778   23.173668    5.860464   x
            x    C       467       35.052546   23.173595    5.895180   x
            x    C       468        2.766626   23.173474    5.898634   x
            x    C       469       29.674530   23.173557    5.894917   x
            x    C       470       61.958606   23.173594    5.895545   x
            x    C       471       10.843689   23.173677    5.863980   x
            x    C       472       18.909839   23.173779    5.893634   x
            x    C       473        5.454389   23.173501    5.862893   x
            x    C       474       21.597504   23.173788    5.861404   x
            x    C       475       13.531365   23.173751    5.893548   x
            x    C       476       55.227053   25.509107    5.851222   x
            x    C       477       31.013011   25.497991    5.886744   x
            x    C       478       39.084121   25.509042    5.856312   x
            x    C       479       63.296852   25.497909    5.886508   x
            x    C       480        6.799050   25.509159    5.860747   x
            x    C       481       25.641997   25.509310    5.856203   x
            x    C       482       33.714483   25.497984    5.883520   x
            x    C       483       41.783990   25.508916    5.851581   x
            x    C       484       57.926998   25.509060    5.855686   x
            x    C       485        1.427963   25.497903    5.888205   x
            x    C       486       22.941698   25.509286    5.859584   x
            x    C       487       14.869862   25.497951    5.886759   x
            x    C       488        9.499381   25.509203    5.860315   x
            x    C       489       17.571339   25.497989    5.884689   x
            x    C       490       18.915782   27.833875    5.883817   x
            x    C       491       26.980086   27.833993    5.878598   x
            x    C       492       35.059006   27.834021    5.879540   x
            x    C       493       59.264394   27.833764    5.877605   x
            x    C       494        2.772399   27.833980    5.886654   x
            x    C       495       10.837271   27.833757    5.882806   x
            x    C       496       21.603914   27.833869    5.879965   x
            x    C       497       29.668567   27.834059    5.882179   x
            x    C       498       37.746827   27.833692    5.875468   x
            x    C       499       53.889200   27.833640    5.869292   x
            x    C       500       61.952279   27.834057    5.879826   x
            x    C       501        5.460882   27.833815    5.880827   x
            x    C       502       13.525471   27.833739    5.884205   x
            x    C       503       43.121709   27.833470    5.870297   x
            x    C       504       14.869974   30.169224    5.893315   x
            x    C       505       22.941586   30.158439    5.854323   x
            x    C       506       31.013240   30.169798    5.890784   x
            x    C       507       63.296948   30.169862    5.890231   x
            x    C       508        6.798789   30.158421    5.854657   x
            x    C       509       17.571158   30.169375    5.891282   x
            x    C       510       25.642184   30.158558    5.850328   x
            x    C       511       33.714402   30.169786    5.887377   x
            x    C       512        1.427718   30.169748    5.891989   x
            x    C       513        9.499437   30.158300    5.854888   x
            x    C       514       39.084028   30.158251    5.849400   x
            x    C       515       55.226891   30.158180    5.844826   x
            x    C       516       57.927152   30.158404    5.848497   x
            x    C       517       41.784269   30.158115    5.845499   x
            x    C       518       13.531212   32.493376    5.897947   x
            x    C       519       10.843543   32.493940    5.865085   x
            x    C       520       18.909920   32.493523    5.897901   x
            x    C       521       26.986848   32.494459    5.859134   x
            x    C       522        2.766473   32.494147    5.897607   x
            x    C       523       21.597561   32.494074    5.862619   x
            x    C       524       29.674629   32.494236    5.894063   x
            x    C       525       61.958382   32.494141    5.893580   x
            x    C       526        5.454224   32.494345    5.861285   x
            x    C       527       35.052761   32.494042    5.893252   x
            x    C       528       59.271029   32.494142    5.859922   x
            x    C       529       37.740070   32.494026    5.856908   x
            x    C       530       43.128559   32.493835    5.853545   x
            x    C       531       14.869702   34.817439    5.889119   x
            x    C       532       22.942127   34.829409    5.859719   x
            x    C       533        9.498888   34.829301    5.860227   x
            x    C       534       17.571394   34.817492    5.887037   x
            x    C       535        6.798727   34.829676    5.860489   x
            x    C       536       31.012996   34.818535    5.887815   x
            x    C       537       63.296888   34.818205    5.885936   x
            x    C       538       25.642274   34.829839    5.856558   x
            x    C       539        1.427903   34.818468    5.887766   x
            x    C       540       39.084348   34.829306    5.855217   x
            x    C       541       33.714335   34.818154    5.884174   x
            x    C       542       57.926867   34.829466    5.853995   x
            x    C       543       55.226926   34.829609    5.850722   x
            x    C       544       41.784242   34.829237    5.851445   x
            x    C       545       18.916197   37.153305    5.882757   x
            x    C       546       13.524990   37.153253    5.882838   x
            x    C       547       10.836724   37.153455    5.882114   x
            x    C       548       21.604391   37.153601    5.879654   x
            x    C       549        2.772427   37.154021    5.886991   x
            x    C       550       26.980527   37.153951    5.880637   x
            x    C       551        5.460424   37.153766    5.881730   x
            x    C       552       29.668501   37.154120    5.884379   x
            x    C       553       61.952266   37.153995    5.880228   x
            x    C       554       35.058992   37.153806    5.881313   x
            x    C       555       59.264354   37.153825    5.878620   x
            x    C       556       37.746845   37.153522    5.877629   x
            x    C       557       43.122118   37.153515    5.874146   x
            x    C       558       51.200686   37.154070    5.876321   x
            x    C       559       53.888747   37.153779    5.872352   x
            x    C       560       45.810166   37.153964    5.872199   x
            xxxxxxxxxxxxxxxxxxxxxxxxxxxxxxxxxxxxxxxxxxxxxxxxxxxxxxxxxxxx
 

LBFGS: continuation file name is "graphite.continuation"
 LBFGS: Restarting previous  geometry optimization.
 avg_mass=  21102.038348011974
 Enthalpy contributions:
                  total energy=  -3.04172224E+003 Eh
        diagonal pressure term=   0.00000000E+000 Eh
    off-diagonal pressure term=   0.00000000E+000 Eh
 LBFGS: finished iteration   0  with enthalpy= -3.041722241768E+003 Eh
  
 +-----------+-----------------+-----------------+------------+-----+ <-- LBFGS
 | Parameter |      value      |    tolerance    |    units   | OK? | <-- LBFGS
 +-----------+-----------------+-----------------+------------+-----+ <-- LBFGS
 |  dE/ion   |   0.000000E+000 |   1.000000E-006 |         Eh | No  | <-- LBFGS
 |  |F|max   |   4.989626E-003 |   2.000000E-003 |    Eh/Bohr | No  | <-- LBFGS
 |  |dR|max  |   0.000000E+000 |   5.000000E-003 |       Bohr | No  | <-- LBFGS
 +-----------+-----------------+-----------------+------------+-----+ <-- LBFGS
  

================================================================================
 Starting LBFGS iteration    1 ...
================================================================================
 Writing xyz coordinates to file "graphite.xyz" ... done

 Writing continuation file "graphite.continuation" ...done
 Backing up NGWFs to file "graphite.tightbox_ngwfs.bfgs_back" ... done
 Backing up Hamiltonian to file "graphite.ham.bfgs_back" ... done
  
 +------------+-------------+-------------+-----------------+ <-- min LBFGS
 |    Step    |   lambda    |   F.delta   |    enthalpy     | <-- min LBFGS
 +------------+-------------+-------------+-----------------+ <-- min LBFGS
 |  previous  |    0.000000 |    0.001839 |    -3041.722242 | <-- min LBFGS
 +------------+-------------+-------------+-----------------+ <-- min LBFGS
  

--------------------------------------------------------------------------------
 LBFGS: starting iteration   1 with trial guess (lambda=    1.000000)
--------------------------------------------------------------------------------
 
                           -------------------------------
                                     Cell Contents
                           -------------------------------
 
            xxxxxxxxxxxxxxxxxxxxxxxxxxxxxxxxxxxxxxxxxxxxxxxxxxxxxxxxxxxx
            x  Element    Atom      Absolute co-ordinates of atoms     x
            x            Number        x           y           z       x
            x----------------------------------------------------------x
            x    Li        1        0.046798   37.149712   16.406260   x
            x    Li        2        0.046961   27.827418   16.407013   x
            x    Li        3        0.046401   18.503495   16.406326   x
            x    Li        4        0.046048    9.186710   16.405241   x
            x    Li        5       32.404526   37.148722   16.406819   x
            x    Li        6       32.404184   27.827437   16.405727   x
            x    Li        7       32.405535   18.504604   16.406679   x
            x    Li        8       32.405991    9.186806   16.407406   x
            x    Li        9       16.233572    9.190681   16.394632   x
            x    Li       10       16.233655   18.497520   16.398137   x
            x    Li       11       16.233757   27.826954   16.406427   x
            x    Li       12       16.233536   37.153041   16.404700   x
            x    Li       13       48.481213   37.142593   16.399225   x
            x    Li       14       48.481184   27.830828   16.395508   x
            x    Li       15       48.481202   18.507904   16.405746   x
            x    Li       16       48.481164    9.186294   16.407388   x
            x    C        17       18.932684    9.196137   12.885195   x
            x    C        18       13.510671    9.196086   12.888896   x
            x    C        19       14.864279   11.540758   12.893660   x
            x    C        20       17.578976   11.540894   12.890816   x
            x    C        21       51.214698   27.836063   12.890174   x
            x    C        22       45.794876   27.836032   12.887781   x
            x    C        23       47.148220   30.180877   12.893517   x
            x    C        24       49.862092   30.180612   12.893993   x
            x    C        25       14.863951    6.850635   12.899614   x
            x    C        26       17.579283    6.850565   12.896723   x
            x    C        27       21.603009   13.856104   12.916258   x
            x    C        28       18.924689   13.855538   12.883940   x
            x    C        29       13.518418   13.855542   12.886566   x
            x    C        30       14.863935   16.170483   12.903791   x
            x    C        31       17.579238   16.170347   12.900919   x
            x    C        32       47.147884   25.490401   12.899091   x
            x    C        33       49.862307   25.490753   12.899356   x
            x    C        34       53.884797   32.496156   12.924544   x
            x    C        35       51.206809   32.495649   12.889634   x
            x    C        36       45.803342   32.495607   12.887094   x
            x    C        37       47.147860   34.810436   12.903944   x
            x    C        38       49.862326   34.810776   12.904151   x
            x    C        39       14.864106    2.220985   12.903630   x
            x    C        40       17.578986    2.221148   12.900845   x
            x    C        41       22.946352    2.202534   12.921554   x
            x    C        42        9.496284    2.202319   12.923997   x
            x    C        43       63.289430    2.221350   12.907092   x
            x    C        44        6.800464    2.202398   12.927470   x
            x    C        45       31.008458    2.220978   12.912128   x
            x    C        46        1.433403    2.221087   12.909208   x
            x    C        47       25.641948    2.202561   12.926552   x
            x    C        48       33.722539    2.221178   12.907174   x
            x    C        49       39.088123    2.202143   12.926172   x
            x    C        50       55.227398    2.202179   12.925356   x
            x    C        51       57.922756    2.202522   12.921414   x
            x    C        52       47.148191    2.221168   12.902465   x
            x    C        53       41.783103    2.202081   12.925370   x
            x    C        54       49.861891    2.220982   12.902481   x
            x    C        55       18.924647    4.535704   12.886025   x
            x    C        56       13.518445    4.535703   12.888658   x
            x    C        57       10.839800    4.536129   12.924966   x
            x    C        58       26.985160    4.536296   12.934972   x
            x    C        59        5.457176    4.536197   12.932567   x
            x    C        60       21.602970    4.536303   12.920166   x
            x    C        61       59.265881    4.536259   12.926820   x
            x    C        62        2.778852    4.535780   12.901203   x
            x    C        63       35.067490    4.535603   12.898654   x
            x    C        64       61.944025    4.535791   12.895099   x
            x    C        65       29.663384    4.535770   12.903327   x
            x    C        66       43.126064    4.535973   12.933201   x
            x    C        67       51.206308    4.535773   12.898445   x
            x    C        68       37.745150    4.535957   12.931324   x
            x    C        69       53.884264    4.536171   12.933172   x
            x    C        70       45.803594    4.535678   12.896645   x
            x    C        71       22.946503    6.869702   12.910601   x
            x    C        72       63.289217    6.850555   12.911929   x
            x    C        73        6.800853    6.869747   12.919424   x
            x    C        74       31.007938    6.850998   12.918209   x
            x    C        75       39.088411    6.869347   12.921611   x
            x    C        76       57.922377    6.869591   12.916402   x
            x    C        77        1.433978    6.851000   12.914129   x
            x    C        78        9.496164    6.869634   12.913086   x
            x    C        79       25.641627    6.869862   12.918626   x
            x    C        80       33.722767    6.850440   12.913253   x
            x    C        81       55.227463    6.869853   12.922077   x
            x    C        82       47.147856    6.850460   12.913787   x
            x    C        83       41.782950    6.869454   12.922534   x
            x    C        84       49.862101    6.850846   12.913735   x
            x    C        85       51.214282    9.196130   12.905652   x
            x    C        86       59.252572    9.196148   12.876084   x
            x    C        87        2.786765    9.196426   12.904449   x
            x    C        88       26.972479    9.196135   12.882489   x
            x    C        89       35.075893    9.196315   12.900859   x
            x    C        90       43.112387    9.195963   12.883562   x
            x    C        91       53.897071    9.196148   12.882248   x
            x    C        92       61.935784    9.196439   12.898675   x
            x    C        93        5.469871    9.196047   12.879714   x
            x    C        94       21.616012    9.195957   12.865026   x
            x    C        95       29.655436    9.196381   12.907843   x
            x    C        96       37.758755    9.195915   12.878410   x
            x    C        97       45.794974    9.196037   12.904114   x
            x    C        98       10.827105    9.195841   12.870668   x
            x    C        99       47.148122   11.540945   12.910377   x
            x    C       100       55.227362   11.522519   12.926161   x
            x    C       101       63.289688   11.541612   12.905555   x
            x    C       102       31.008122   11.541108   12.911451   x
            x    C       103       39.087931   11.522595   12.924524   x
            x    C       104       49.861795   11.540707   12.910310   x
            x    C       105       57.922824   11.522848   12.919568   x
            x    C       106        1.433848   11.541192   12.907511   x
            x    C       107       33.722349   11.541492   12.906750   x
            x    C       108       41.782956   11.522486   12.926358   x
            x    C       109        6.800706   11.522345   12.921306   x
            x    C       110       22.946218   11.522434   12.912699   x
            x    C       111       25.641840   11.522448   12.920354   x
            x    C       112        9.496502   11.522290   12.915262   x
            x    C       113       45.803382   13.855440   12.901342   x
            x    C       114       43.125755   13.856247   12.934665   x
            x    C       115       51.206419   13.855562   12.903034   x
            x    C       116       59.266040   13.856630   12.925043   x
            x    C       117       35.067323   13.856061   12.897181   x
            x    C       118       53.884410   13.856413   12.934691   x
            x    C       119       61.944235   13.856141   12.893893   x
            x    C       120       29.663160   13.856117   12.900991   x
            x    C       121       37.744976   13.856499   12.929334   x
            x    C       122        2.779202   13.856071   12.899108   x
            x    C       123       26.984910   13.856455   12.930922   x
            x    C       124        5.457497   13.856372   12.928673   x
            x    C       125       10.839886   13.856086   12.921076   x
            x    C       126       47.147726   16.170207   12.916002   x
            x    C       127       55.227898   16.189957   12.922935   x
            x    C       128       41.782473   16.189679   12.923103   x
            x    C       129       49.862153   16.170539   12.916090   x
            x    C       130       39.088059   16.189911   12.921465   x
            x    C       131       63.289427   16.170795   12.912268   x
            x    C       132       31.008006   16.171097   12.916648   x
            x    C       133       57.922706   16.189944   12.916707   x
            x    C       134       33.722607   16.170773   12.912185   x
            x    C       135        6.800934   16.189810   12.918015   x
            x    C       136        1.433962   16.170992   12.913916   x
            x    C       137       25.641612   16.189868   12.916967   x
            x    C       138       22.946439   16.189560   12.910772   x
            x    C       139        9.496283   16.189588   12.913336   x
            x    C       140       51.214596   18.515847   12.905092   x
            x    C       141       45.794658   18.515865   12.903239   x
            x    C       142       43.111949   18.515892   12.883852   x
            x    C       143       53.897552   18.515973   12.882951   x
            x    C       144       35.075866   18.516347   12.900757   x
            x    C       145       59.252866   18.516309   12.878453   x
            x    C       146       37.758445   18.516301   12.879637   x
            x    C       147       61.935765   18.516349   12.900559   x
            x    C       148       29.655483   18.516210   12.907286   x
            x    C       149        2.786732   18.516230   12.905558   x
            x    C       150       26.972427   18.515911   12.883513   x
            x    C       151        5.469887   18.515886   12.881643   x
            x    C       152       10.827291   18.515852   12.876875   x
            x    C       153       18.932606   18.516049   12.892163   x
            x    C       154       21.615805   18.515895   12.870938   x
            x    C       155       13.510726   18.516024   12.896085   x
            x    C       156       47.148001   20.860802   12.903611   x
            x    C       157       49.861974   20.860554   12.903787   x
            x    C       158       55.227804   20.842221   12.925850   x
            x    C       159       41.782592   20.842280   12.924981   x
            x    C       160       31.008426   20.860624   12.911261   x
            x    C       161       39.087697   20.842522   12.925275   x
            x    C       162       63.289522   20.861138   12.907877   x
            x    C       163       33.722491   20.861187   12.906497   x
            x    C       164       57.923097   20.842628   12.921658   x
            x    C       165        1.433483   20.860648   12.909847   x
            x    C       166        6.800927   20.841914   12.928045   x
            x    C       167       22.945813   20.842091   12.920800   x
            x    C       168       25.641563   20.842041   12.926121   x
            x    C       169       14.864377   20.860768   12.902545   x
            x    C       170        9.496883   20.841968   12.924176   x
            x    C       171       17.578860   20.860885   12.899355   x
            x    C       172       51.206676   23.175496   12.891242   x
            x    C       173       45.803294   23.175459   12.888858   x
            x    C       174       43.125593   23.176075   12.926769   x
            x    C       175       59.266147   23.176189   12.926471   x
            x    C       176       37.744885   23.176170   12.928689   x
[...]
 C   365 -- C   389       -0.07     -0.00      5.39668
 C   333 -- C   541       -0.07     -0.00      5.39669
 C   417 -- C   444       -0.07     -0.00      5.39671
 C   326 -- C   340       -0.07     -0.00      5.39672
 C   485 -- C   507       -0.07     -0.00      5.39673
 C   424 -- C   450       -0.07     -0.00      5.39676
 C   334 -- C   537       -0.07     -0.00      5.39676
 C   414 -- C   445       -0.07     -0.00      5.39678
 C   325 -- C   342       -0.07     -0.00      5.39680
 C   489 -- C   504       -0.07     -0.00      5.39684
 C   487 -- C   509       -0.07     -0.00      5.39686
 C   327 -- C   534       -0.07     -0.00      5.39692
 C   336 -- C   536       -0.07     -0.00      5.39696
 C   319 -- C   457       -0.07     -0.00      5.39701
 C   328 -- C   531       -0.07     -0.00      5.39703
 C   422 -- C   448       -0.07     -0.00      5.39709
 C   318 -- C   459       -0.07     -0.00      5.39711
 C   419 -- C   453       -0.07     -0.00      5.39713
 C   331 -- C   539       -0.07     -0.00      5.39720
 C   172 -- C   173       -0.07      0.00      5.40318
 C    35 -- C    36       -0.07      0.00      5.40335
 C    67 -- C    70       -0.07      0.00      5.40353
 C   113 -- C   115       -0.07      0.00      5.40355
 C   236 -- C   239       -0.07      0.00      5.40444
 C   117 -- C   120       -0.07      0.00      5.40448
 C   179 -- C   181       -0.07      0.00      5.40461
 C    63 -- C    65       -0.07      0.00      5.40475
 C   234 -- C   237       -0.07      0.00      5.40564
 C   119 -- C   122       -0.07      0.00      5.40573
 C   180 -- C   182       -0.07      0.00      5.40575
 C    55 -- C    56       -0.07      0.00      5.40598
 C   184 -- C   187       -0.07      0.00      5.40600
 C    62 -- C    64       -0.07      0.00      5.40602
 C    28 -- C    29       -0.07      0.00      5.40606
 C   230 -- C   232       -0.07      0.00      5.40621
 C    23 -- C    33       -0.06      0.00      5.41495
 C    24 -- C    32       -0.06      0.00      5.41506
 C    74 -- C   107       -0.06      0.00      5.41528
 C    84 -- C    99       -0.06      0.00      5.41529
 C    82 -- C   104       -0.06      0.00      5.41535
 C   194 -- C   218       -0.06      0.00      5.41540
 C   129 -- C   156       -0.06     -0.00      5.41541
 C   126 -- C   157       -0.06      0.00      5.41542
 C    80 -- C   102       -0.06      0.00      5.41544
 C    38 -- C    52       -0.06     -0.00      5.41547
 C   189 -- C   223       -0.06      0.00      5.41549
 C    19 -- C    26       -0.06      0.00      5.41552
 C   132 -- C   163       -0.06     -0.00      5.41556
 C    20 -- C    25       -0.06      0.00      5.41556
 C    37 -- C    54       -0.06      0.00      5.41559
 C    77 -- C   101       -0.06      0.00      5.41562
 C    48 -- C   248       -0.06     -0.00      5.41565
 C   191 -- C   224       -0.06      0.00      5.41567
 C    72 -- C   106       -0.06      0.00      5.41567
 C    45 -- C   253       -0.06     -0.00      5.41567
 C   134 -- C   160       -0.06     -0.00      5.41578
 C   197 -- C   219       -0.06      0.00      5.41581
 C   136 -- C   162       -0.06     -0.00      5.41585
 C    46 -- C   249       -0.06     -0.00      5.41589
 C   201 -- C   216       -0.06      0.00      5.41603
 C   131 -- C   165       -0.06     -0.00      5.41603
 C    43 -- C   251       -0.06     -0.00      5.41604
 C    40 -- C   243       -0.06      0.00      5.41604
 C    39 -- C   246       -0.06     -0.00      5.41605
 C   199 -- C   221       -0.06      0.00      5.41606
 C    31 -- C   169       -0.06     -0.00      5.41610
 C    30 -- C   171       -0.06      0.00      5.41617
 C    21 -- C    22       -0.06      0.00      5.42007
 C   140 -- C   141       -0.06     -0.00      5.42014
 C   270 -- C   272       -0.06     -0.00      5.42028
 C    85 -- C    97       -0.06      0.00      5.42069
 C   144 -- C   148       -0.06     -0.00      5.42104
 C   264 -- C   266       -0.06     -0.00      5.42112
 C   204 -- C   209       -0.06     -0.00      5.42118
 C    89 -- C    95       -0.06     -0.00      5.42119
 C   147 -- C   149       -0.06     -0.00      5.42211
 C   261 -- C   265       -0.06     -0.00      5.42212
 C   206 -- C   212       -0.06     -0.00      5.42218
 C    87 -- C    92       -0.06     -0.00      5.42238
 C   153 -- C   155       -0.06     -0.00      5.42248
 C    17 -- C    18       -0.06      0.00      5.42256
 C   257 -- C   258       -0.06     -0.00      5.42256
 C   202 -- C   214       -0.06      0.00      5.42285
=============================================================


============== Orbital energy and occupancy information for spin 1 =============

      Total number of orbitals:    2288
        Occupancy sum (kernel):    1088.551092580
   Occupancy sum (eigenvalues):    1088.551092580
                 HOMO-LUMO gap:       0.000005369 Eh
                 Mid-gap level:      -0.157712779 Eh

                        Orbital | Energy (Eh) | Occupancy
                            1    -1.956484544   1.0000000
                        .......   ...........   .........
                         1080    -0.179469418   0.9961652
                         1081    -0.171283769   0.9656148
                         1082    -0.171282257   0.9656006
                         1083    -0.158625755   0.4725983
                         1084    -0.158624275   0.4724953
                         1085    -0.158616405   0.4719687
                         1086    -0.158615064   0.4718818
                         1087    -0.157748943   0.4136211
                         1088    -0.157728076   0.4123836
                         1089    -0.157715463   0.4106754
                        ....... -- gap at 0K -- .........
                         1090    -0.157710094   0.4103303
                         1091    -0.157460799   0.3941264
                         1092    -0.157458232   0.3939945
                         1093    -0.155983685   0.3023219
                         1094    -0.155973574   0.3018195
                         1095    -0.155613058   0.2824766
                         1096    -0.155598531   0.2816524
                         1097    -0.155285047   0.2634338
                         1098    -0.154072359   0.2057395
                         1099    -0.154038431   0.2042372
                        .......   ...........   .........
                         2288     0.721702793   0.0000000

================================================================================

============== Orbital energy and occupancy information for spin 2 =============

      Total number of orbitals:    2288
        Occupancy sum (kernel):    1088.551092631
   Occupancy sum (eigenvalues):    1088.551092631
                 HOMO-LUMO gap:       0.000005369 Eh
                 Mid-gap level:      -0.157712779 Eh

                        Orbital | Energy (Eh) | Occupancy
                            1    -1.956484544   1.0000000
                        .......   ...........   .........
                         1080    -0.179469418   0.9961652
                         1081    -0.171283769   0.9656148
                         1082    -0.171282257   0.9656007
                         1083    -0.158625756   0.4725983
                         1084    -0.158624275   0.4724953
                         1085    -0.158616405   0.4719687
                         1086    -0.158615064   0.4718818
                         1087    -0.157748943   0.4136211
                         1088    -0.157728076   0.4123836
                         1089    -0.157715463   0.4106754
                        ....... -- gap at 0K -- .........
                         1090    -0.157710094   0.4103303
                         1091    -0.157460799   0.3941264
                         1092    -0.157458232   0.3939944
                         1093    -0.155983685   0.3023218
                         1094    -0.155973574   0.3018195
                         1095    -0.155613058   0.2824766
                         1096    -0.155598531   0.2816524
                         1097    -0.155285047   0.2634338
                         1098    -0.154072359   0.2057395
                         1099    -0.154038431   0.2042373
                        .......   ...........   .........
                         2288     0.721702793   0.0000000

================================================================================

===================== Writing canonical molecular orbitals =====================
    Spin 1
| Orbital  Energy (eV)  Norm     |
| HOMO-5   -4.31638615  1.000000 | 
| HOMO-4   -4.31617200  1.000000 | 
| HOMO-3   -4.31613550  1.000000 | 
| HOMO-2   -4.29256715  1.000000 | 
| HOMO-1   -4.29199935  1.000000 | 
| HOMO     -4.29165613  1.000000 | 
| LUMO     -4.29151004  1.000000 | 
| LUMO+1   -4.28472636  1.000000 | 
| LUMO+2   -4.28465652  1.000000 | 
| LUMO+3   -4.24453204  1.000000 | 
| LUMO+4   -4.24425690  1.000000 | 
| LUMO+5   -4.23444678  1.000000 | 
================================================================================

===================== Writing canonical molecular orbitals =====================
    Spin 2
| Orbital  Energy (eV)  Norm     |
| HOMO-5   -4.31638615  1.000000 | 
| HOMO-4   -4.31617200  1.000000 | 
| HOMO-3   -4.31613550  1.000000 | 
| HOMO-2   -4.29256715  1.000000 | 
| HOMO-1   -4.29199935  1.000000 | 
| HOMO     -4.29165613  1.000000 | 
| LUMO     -4.29151004  1.000000 | 
| LUMO+1   -4.28472636  1.000000 | 
| LUMO+2   -4.28465652  1.000000 | 
| LUMO+3   -4.24453204  1.000000 | 
| LUMO+4   -4.24425690  1.000000 | 
| LUMO+5   -4.23444678  1.000000 | 
================================================================================
 
=============== Density of States (DOS) calculation for UP spin ================
Writing "graphite_UP_DOS.txt" ... done
================================================================================
 
============== Density of States (DOS) calculation for DOWN spin ===============
Writing "graphite_DN_DOS.txt" ... done
================================================================================
 
Writing bands to file "graphite.val_bands" ... done

IS: Calculating electrolyte contribution to the atomic forces ...
================================================================================
 
***********************************************************
********** Summary of Forces (values in Eh/a) *************
*                                                         *
* ---------------------- Minimum ------------------------ *
* Atom:       544, |F|min =    0.00002283                 *
* Components:     Fx|min       Fy|min       Fz|min        *
*              -0.00002219  -0.00000297   0.00000450      *
*                                                         *
* ---------------------- Maximum ------------------------ *
* Atom:       299, |F|max =    0.00055005                 *
* Components:     Fx|max       Fy|max       Fz|max        *
*               0.00011620   0.00051505   0.00015420      *
*                                                         *
* ---------------- Root Mean Square Force --------------- *
*                  |F|rms =    0.00031727                 *
* Components:     Fx|rms       Fy|rms       Fz|rms        *
*               0.00015487   0.00012889   0.00024507      *
***********************************************************
 

                                                      hartree           kcal/mol
IS: NB: Energy of pure electrolyte:         -0.08539733160624         -53.587633

------------------------------ TIMING INFORMATION ------------------------------
AVERAGE TIME:    9894.235s on    128 proc(s)                                    
TOTAL TIME:      9894.240s on    128 proc(s)                                    
================= AVERAGE TIMINGS FROM ALL PROCS (CUMULATIVE) ==================
|| TAG                                    #calls    cpu time   %total  Gflops ||
|| linalg_invert_sym_matrix             :     4        0.00s   0.000%  ------ || (1 procs only)
|| density_fftbox_interp_mult_imbal     : 13400        0.00s   0.000%  ------ ||
|| sparse_set_to_garbage                :   164        0.01s   0.000%  ------ ||
|| onetep.F90 main loop imbalance       :     1        0.02s   0.000%  ------ ||
|| onetep.F90 final imbalance           :     1        0.03s   0.000%  ------ ||
|| ewald_calculate_forces_realspace     :     7        0.03s   0.000%  ------ ||
|| vdwcorrection_calculate_forces       :     7        0.03s   0.000%  ------ ||
|| vdwcorrection_calculate_energy       :     7        0.09s   0.001%  ------ ||
|| basis_extract_function_from_box      :  1197        0.09s   0.001%  ------ ||
|| pseudopotentials_core_density        :     7        0.13s   0.001%  ------ ||
|| pseudopotentials_local_on_grid       :     7        0.14s   0.001%  ------ ||
|| parallel_prepare_fd_halos_alloc      : 36285        0.20s   0.002%  ------ ||
|| sparse_spam3toblacs_real_fast_imbal  :  1241        0.20s   0.002%  ------ ||
|| pseudopotentials_nonlocal_mat        :    24        0.23s   0.002%  ------ ||
|| restart_hamiltonian_read             :     7        0.33s   0.003%  ------ ||
|| parallel_prepare_fd_halos_request    : 36285        0.35s   0.004%  ------ ||
|| sparse_blacstospam3_real_fast_imbal  :  1218        0.42s   0.004%  ------ ||
|| restart_hamiltonian_write            :    15        0.86s   0.009%  ------ ||
|| pseudo_make_structure_factor         :     7        0.92s   0.009%  ------ ||
|| sparse_spam3toblacs_real_fast_B2     : 158.8k       1.04s   0.010%  ------ ||
|| smeared_ion_generate_potential_PBC   :     7        1.38s   0.014%  ------ ||
|| parallel_prepare_fd_halos_satisfy    : 36285        1.69s   0.017%  ------ ||
|| energy_and_force_init_cell           :     1        2.32s   0.023%  ------ ||
|| sparse_init                          :     7        2.52s   0.025%  ------ ||
|| ngwf_gradient_coeffs                 :    15        2.83s   0.029%  ------ ||
|| restart_kernel_write                 :    22        3.45s   0.035%  ------ ||
|| pseudo_local_calculate_forces        :     7        3.63s   0.037%  ------ ||
|| eigenstates_calculate                :     1        4.32s   0.044%  ------ ||
|| integrals_grad_spam3                 :     7        4.36s   0.044%  ------ ||
|| nonsc_forces_ngwfs_calc              :     7        4.38s   0.044%  ------ ||
|| ewald_calculate_energy               :     7        4.53s   0.046%  ------ ||
|| density_init_guess_real              :     7        4.67s   0.047%  ------ ||
|| sparse_embed_hotelling_invert_embed  :    24        5.23s   0.053%  ------ ||
|| pseudo_nlcc_calculate_forces         :     7        5.43s   0.055%  ------ ||
|| projectors_func_grad_ovlp_box_spam3  :    21        6.81s   0.069%  ------ ||
|| projectors_func_ovlp_box_spam3       :    24        7.24s   0.073%  ------ ||
|| fourier_filter_cell                  :   266        7.27s   0.073% 203.920 ||
|| pseudo_nl_calculate_forces           :     7        7.87s   0.080%  ------ ||
|| sparse_trace                         :  4646        9.58s   0.097%  ------ ||
|| projectors_init_fftbox_recip         :   105       10.18s   0.103%  ------ ||
|| restart_ngwfs_tightbox_input         :     7       10.58s   0.107%  ------ ||
|| fourier_apply_box_pair               :  1355       12.46s   0.126%  1.756k ||
|| boltzmann_init_steric_pot            :     7       12.78s   0.129%  ------ ||
|| ewald_calculate_forces_recipspace    :     7       13.85s   0.140%  ------ ||
|| ewald_calculate_forces               :     7       13.96s   0.141%  ------ ||
|| parallel_prepare_fd_halos_comms_imbal: 36285       14.55s   0.147%  ------ ||
|| parallel_prepare_fd_halos_clear      : 36285       14.65s   0.148%  ------ ||
|| basis_copy_function_to_box           : 17338       14.99s   0.151%  ------ ||
|| function_ops_brappd_ketppd_spam3     :    41       15.94s   0.161%  ------ ||
|| parallel_prepare_fd_halos_comms_wait : 36285       24.65s   0.249%  ------ ||
|| integrals_kinetic_spam3              :    24       24.95s   0.252%  ------ ||
|| properties_calculate                 :     1       29.15s   0.295%  ------ ||
|| fourier_interpolate_cell             :   670       31.40s   0.317% 118.893 ||
|| sparse_product                       :  2767       37.66s   0.381%  ------ ||
|| fourier_apply_cell_backward          :  2799       44.61s   0.451% 176.448 ||
|| sparse_spam3toblacs_real_fast_B1     : 158.8k      44.69s   0.452%  ------ ||
|| projectors_gradient_batch            :    60       45.19s   0.457%  ------ ||
|| sparse_spam3toblacs_real_fast        :  1241       48.12s   0.486%  ------ ||
|| parallel_prepare_fd_halos            : 36285       56.30s   0.569%  ------ ||
|| basis_dot_function_with_box          : 3.062M      56.65s   0.573%  ------ ||
|| cell_grid_extract_box_real           :  5320       66.86s   0.676%  ------ ||
|| restart_ngwfs_tightbox_output        :     9       83.06s   0.840%  ------ ||
|| sparse_blacstospam3_real_fast        :  1218       87.33s   0.883%  ------ ||
|| xc_energy_potential                  :   342      100.25s   1.013%  ------ ||
|| fourier_apply_cell_forward           :  2771      125.50s   1.268%  62.092 ||
|| cell_grid_deposit_box_real           : 13950      148.14s   1.497%  ------ ||
|| finite_difference_derivative         : 36285      166.58s   1.684%  ------ ||
|| dense_eigensolve                     :   594      175.84s   1.777%  ------ ||
|| basis_add_function_to_box            : 9.634M     185.74s   1.877%  ------ ||
|| ngwf_gradient_build_batch            :    60      194.53s   1.966%  ------ ||
|| edft_diag_ngwf_ham                   :   592      220.69s   2.231%  ------ ||
|| integrals_locpot_mat_els_batch       :   472      237.54s   2.401%  ------ ||
|| hamiltonian_energy_components        :     7      241.75s   2.443%  ------ ||
|| ngwf_gradient_batch                  :    60      311.90s   3.152%  ------ ||
|| ngwf_gradient_lnv                    :    15      323.64s   3.271%  ------ ||
|| implicit_solvent_boltzmann_forces    :     7      343.06s   3.467%  ------ ||
|| edft_apply_smearing_operator         :   296      345.58s   3.493%  ------ ||
|| density_batch_row_sums               :  1340      502.64s   5.080%  ------ ||
|| density_fftbox_deposit_to_cell       : 13400      572.87s   5.790%  ------ ||
|| smeared_ion_force_correction         :    14      674.44s   6.816%  ------ ||
|| implicit_solvent_soft_sphere_forces  :     7      716.20s   7.239%  ------ ||
|| potential_apply_to_ngwf_batch        :   472      889.64s   8.991%  ------ ||
|| integrals_locpot_dbl_grid            :   236     1128.55s  11.406%  ------ ||
|| fourier_apply_box                    : 37170     1239.73s  12.530%  2.334k ||
|| dl_mg_solver_calls                   :   335     1342.07s  13.564%  ------ ||
|| multigrid_calculate_hartree          :   335     1376.13s  13.908%  ------ ||
|| density_fftbox_interpolate_multiply  : 13400     1479.24s  14.950%  ------ ||
|| forces_calculate                     :     7     1838.89s  18.585%  ------ ||
|| density_batch_interp_deposit         :  1340     2714.46s  27.435%  ------ ||
|| density_on_dbl_grid                  :   670     3397.50s  34.338%  ------ ||
|| hamiltonian_lhxc_calculate           :   321     4818.19s  48.697%  ------ ||
|| edft_calculate                       :    15     5962.12s  60.259%  ------ ||
|| ngwf_cg_optimise                     :     7     6802.28s  68.750%  ------ ||
|| energy_and_forces                    :     7     9842.89s  99.481%  ------ ||
|| total_time                           :     1     9894.24s 100.000%  ------ ||
================================================================================
Overhead of generating timer report: 
- 0 ms averaging over threads,
- 40 ms ensuring consistency across MPI ranks,
- 42 ms printing in order.

Job completed: 01-11-2023 02:15 (+0000)

