==================================================================================
It's Fri 24 Nov 2023 09:55:52 AM GMT.
*** Starting onetep_launcher (node nid005798, PIDs 204781 204782 204783 204784 204785 204786 204787 204788 204789 204790 204791 204792 204793 204794 204795 204796)...
    - ONETEP arguments: graphite.dat
    - Current directory: /mnt/lustre/a2fs-work3/work/e89/e89/arihant/linuc/n/new/64/0.0n
    - Launcher executable directory: /mnt/lustre/a2fs-work3/work/e89/e89/arihant/onetep/utils
    - (-e) ONETEP executable specified through command-line: /work/e89/e89/arihant/onetep/bin/onetep.archer2_2023_cray
      ... trying /work/e89/e89/arihant/onetep/bin/onetep.archer2_2023_cray
          -> looks OK
*** Setting up environment...
    - (-s) Process stack size: unlimited
    - (-t) OMP_NUM_THREADS: 8
    - (-o) OMP_STACKSIZE: 64M
    - (-c) Maximum core file size: 2048000
    - (-d) decfort_dump_flag: n
    - (-m) I_MPI_OFA_TRANSLATION_CACHE: 0
    - (-m) I_MPI_DAPL_TRANSLATION_CACHE: 0
    - (-m) I_MPI_DAPL_UD_TRANSLATION_CACHE: 0
*** Starting ONETEP...
    - /work/e89/e89/arihant/onetep/bin/onetep.archer2_2023_cray graphite.dat
=================================================================================
_________________________________________________________________________________
 +---------------------------------------------------------------+
 |                                                               |
 |        ####### #     # ####### ####### ####### ######         |
 |        #     # ##    # #          #    #       #     #        |
 |        #     # # #   # #          #    #       #     #        |
 |        #     # #  #  # #####      #    #####   ######         |
 |        #     # #   # # #          #    #       #              |
 |        #     # #    ## #          #    #       #              |
 |        ####### #     # #######    #    ####### #              |
 |                                                               |
 |        Linear-Scaling Ab Initio Total Energy Program          |
 |                                                               |
 |          Release for academic collaborators of ODG            |
 |                                             Version 6.1.59    |
 | Remote: https://github.com/onetep-devel/onetep.git            |
 | Local branch: master                                          |
 | Commit ID: 3df6b8ca88fa1735659d3248d54c94b50edec21b           |
 | Date: Thu Oct 5 13:49:52 2023 +0200                           |
 | Working tree clean                                            |
 |                                                               |
 +---------------------------------------------------------------+
 |                                                               |
 |  Authors:                                                     |
 |  Jacek Dziedzic, Peter D. Haynes, Nicholas D. M. Hine,        |
 |  Arash A. Mostofi, Mike C. Payne and Chris-Kriton Skylaris    |
 |                                                               |
 |  Contributors:                                                |
 |  J. Aarons, L. Andrinopoulos, P. W. Avraam, R. A. Bell,       |
 |  A. Bhandari, G. A. Bramley, R. J. Charlton, S. J. Clark,     |
 |  R. J. Clements, G. C. Constantinescu, F. Corsetti,           |
 |  N. Corsini, O. Dieguez, S. M. M. Dubois, K. K. B. Duff,      |
 |  J. M. Escartin, M. Escobar Azor, A. Greco,                   |
 |  H. Helal, Q. O. Hill, L. P. Lee, J.-H. Li,                   |
 |  E. B. Linscott, G. Moynihan, D. D. O`Regan,                  |
 |  O. K. Okan, M. J. S. Phipps, C. J. Pickard,                  |
 |  J. C. A. Prentice, M. I. J. Probert, L. E. Ratcliff,         |
 |  M. Robinson, A. Ruiz Serrano, M. dos Santos Dias,            |
 |  J. S. Spencer, E. W. Tait, G. Teobaldi, D. Turban,           |
 |  V. Vitale, K. A. Wilkinson, C. Weber, J. C. Womack,          |
 |  N. Yeung and T. J. Zuehlsdorff                               |
 |                                                               |
 |                                   Copyright (c) 2004-2023     |
 |                                                               |
 |  Please cite:                                                 |
 |  "The ONETEP linear-scaling density functional theory program"|
 |   J. Chem. Phys. 152(17) 174111 (2020)                        |
 |                                                               |
 |          in all publications arising from your use of ONETEP. |
 |                                                               |
 +---------------------------------------------------------------+
 |                                                               |
 |   ONETEP is based on developments described in the following  |
 |   publications:                                               |
 |                                                               |
 |  "Nonorthogonal generalized Wannier function pseudopotential  |
 |   plane-wave method".                                         |
 |   C.-K. Skylaris, A. A. Mostofi, P. D. Haynes, O. Dieguez,    |
 |   M. C. Payne.                                                |
 |   Phys. Rev. B 66 035119 (2002).                              |
 |                                                               |
 |  "Preconditioned iterative minimization for linear-scaling    |
 |   electronic structure calculations".                         |
 |   A. A. Mostofi, P. D. Haynes, C.-K. Skylaris, M. C. Payne.   |
 |   J. Chem. Phys. 119(17), pp.8842-8848 (2003).                |
 |                                                               |
 |  "Total-energy calculations on a real space grid with         |
 |   localized functions and a plane-wave basis".                |
 |   A. A. Mostofi, C.-K. Skylaris, P. D. Haynes, M. C. Payne.   |
 |   Comput. Phys. Commun. 147, pp.788-802 (2002).               |
 |                                                               |
 |  "Accurate kinetic energy evaluation in electronic structure  |
 |   calculations with localized functions on real space grids"  |
 |   C.-K. Skylaris, A. A. Mostofi, P. D. Haynes, C. J. Pickard, |
 |   M. C. Payne.                                                |
 |   Comput. Phys. Commun. 140, pp.315-322 (2001).               |
 |                                                               |
 |  "Accurate ionic forces and geometry optimization in linear-  |
 |   scaling density-functional theory with local orbitals"      |
 |   N. D. M. Hine, M. Robinson, P. D. Haynes, C.-K. Skylaris,   |
 |   M. C. Payne, and A. A. Mostofi.                             |
 |   Phys. Rev. B 83 195102 (2011).                              |
 |                                                               |
 +---------------------------------------------------------------+

Job started: 24-11-2023 09:55 (+0000)
 
Reading parameters from file "graphite.dat" ...... done

If your calculation crashes here, before "Checking processes and threads..."
is displayed, then your stack size is insufficient.
If so, use "ulimit -s unlimited" at runtime.
You can disable this check with "check_stack_size F".

Checking processes and threads...
   Determining the default number of threads...
      No default threads set at compilation time: defaulting to 1.
      OpenMP library call suggests 8 threads.
      Hybrid MPI-OpenMP compilation detected.
      Number of MPI processes > 1.
      OMP_NUM_THREADS environment variable present and
      its value matches the one obtained from the OpenMP library call.
      Using this value as default.
      Default threads: 8
      Default applies to threads_max and threads_num_fftboxes.
      Settings in the input file override this default.
   ... done

   Running with 128 MPI processes.
   There are 16 MPI processes running on the same node as the root process.
   Each MPI process is using: 
               1 threads for simulation cell FFTs.
               1 threads for parallel FFT box operations.
               8 threads for loops over batched FFT box operations.
               8 threads in other parallel regions.
   MPI Interface: S1 (use mpi_f08) (-DMPI -DUSE_MPI_F08).
   MPI_ASYNC_PROTECTS_NONBLOCKING: Yes. MPI_SUBARRAYS_SUPPORTED: Yes.
   GPU Interface: None.
... done

Basic input checks...
Resetting ngwf_cg_rotate to TRUE for EDFT calculations
... done

Reading geometry and species blocks from file "graphite.dat" ...
  Reading POSITIONS geometry from str.xyz

  <species_atomic_set> block not found: NGWF initialisation set to SOLVE
IS: Dielectric excluded regions:
    - NONE.
IS: Assigning soft sphere radii for soft sphere solvation...
IS: No soft sphere radii specified. Default Alvarez radii used for all atoms.

----------- SOFT SPHERE RADII -----------
Li  5.333
C   4.442
-----------------------------------------

    
  Number of PPD points along a3 set to 1.  This is 
  the default value, it may have been provided also in the input file.
... done
 Writing xyz coordinates to file "graphite.xyz" ... done


--------------------------------------------------------------------------------
---------------------------------- INPUT FILE ----------------------------------
--------------------------------------------------------------------------------

task geometryoptimization                                                       
geom_method LBFGS                                                               
geom_continuation F                                                             
write_xyz T                                                                     
edft_grand_canonical T                                                          
edft_reference_potential  -4.42 eV                                              
edft_electrode_potential 0.0 V                                                  
edft_nelec_thres 0.000001                                                       
is_dielectric_function soft_sphere                                              
is_implicit_solvent T                                                           
is_smeared_ion_rep T                                                            
is_include_apolar T                                                             
is_solvation_properties F                                                       
is_pbe                    full                                                  
is_pbe_temperature        298.15                                                
is_pbe_bc_debye_screening T                                                     
is_pbe_neutralisation_scheme counterions_auto                                   
is_pbe_energy_tolerance 1E+50                                                   
is_bc_coarseness 5                                                              
is_bc_threshold 1E-9                                                            
is_bulk_permittivity 90.7                                                       
is_solvent_surf_tension 0.0506 N/m                                              
%block sol_ions                                                                 
Li  +1 1.0                                                                      
PF6 -1 1.0                                                                      
%endblock sol_ions                                                              
is_steric_pot_type M                                                            
is_hc_steric_dens_isovalue  0.001                                               
is_hc_steric_smearing         0.4 bohr                                          
is_steric_write T                                                               
%block species_solvent_radius                                                   
Li 3.0                                                                          
C 3.0                                                                           
%endblock species_solvent_radius                                                
multigrid_bc:   P P P                                                           
ion_ion_bc:     P P P                                                           
pspot_bc:       P P P                                                           
smeared_ion_bc: P P P                                                           
mg_max_iters_vcycle 500                                                         
mg_vcyc_smoother_iter_pre 4                                                     
mg_vcyc_smoother_iter_post 4                                                    
mg_max_res_ratio 1000.0                                                         
mg_max_iters_newton 300                                                         
edft                    : T                                                     
edft_smearing_width     : 0.1 eV                                                
spin                    : 0.0                                                   
edft_spin_fix           : 2                                                     
spin_polarized          : T                                                     
cutoff_energy :  1000 eV                                                        
kernel_cutoff : 1000 bohr                                                       
xc_functional PBE                                                               
dispersion 4                                                                    
output_detail VERBOSE                                                           
do_properties T                                                                 
cube_format F                                                                   
dx_format F                                                                     
write_denskern T                                                                
write_tightbox_ngwfs T                                                          
write_hamiltonian T                                                             
%block species                                                                  
Li Li 3  5  8.0                                                                 
C  C  6  4  8.0                                                                 
%endblock species                                                               
%block species_pot                                                              
Li '/work/e89/e89/arihant/pseudo/Li.usp'                                        
C '/work/e89/e89/arihant/pseudo/C.usp'                                          
%endblock species_pot                                                           
%BLOCK LATTICE_CART                                                             
ang                                                                             
34.16920551     0.00000000     0.00000000                                       
0.00000000    19.72760000     0.00000000                                        
0.00000000     0.00000000   100.02798000                                        
%ENDBLOCK LATTICE_CART                                                          
positions_xyz_file str.xyz                                                      
     Hash =  -000008332096929793827936

--------------------------------------------------------------------------------
-------------------------------- END INPUT FILE --------------------------------
--------------------------------------------------------------------------------


 
 ESDF WARNING(1): "ispbeenergytolerance" (esdf_physical) has no units. Assume "hartree".
<<<<<<<<<<<<<<<<<<<<<<<<<<<<<<<<< Full system >>>>>>>>>>>>>>>>>>>>>>>>>>>>>>>>>>
<<<<<<<<<<<<<<<<<<<<<<<<< Pseudopotential information >>>>>>>>>>>>>>>>>>>>>>>>>>
File: /work/e89/e89/arihant/pseudo/Li.usp [ 2001 points up to Gmax=  52.9 (1/bohr)]
  Atomic number:  3;  ionic charge:  3.000000
    Shell 1: l = 0; rc = 1.19 bohr
    Shell 2: l = 0; rc = 1.25 bohr
File: /work/e89/e89/arihant/pseudo/C.usp [ 2001 points up to Gmax=  52.9 (1/bohr)]
  Atomic number:  6;  ionic charge:  4.000000
    Shell 1: l = 0; rc = 1.19 bohr
  Core charge supplied for Nonlinear Core Corrections
<<<<<<<<<<<<<<<<<<<<<<<<<<<<<<<<<<<<<<<<>>>>>>>>>>>>>>>>>>>>>>>>>>>>>>>>>>>>>>>>

-------------------------- Atom counting information ---------------------------
Symbol    Natoms    Nngwfs    Nprojs
  Li        65       325       130
  C        512      2048       512
.......   ......    ......    ......
Totals:    577      2373       642
--------------------------------------------------------------------------------

=============================== PSINC grid sizes ===============================
                      Simulation cell:  143 x  91 x 416
                              FFT-box:  117 x  91 x 117
                                  PPD:   11 x   7 x   1
Grid space d1=  0.451541543008a0 (KE cutoff=  37.25706Eh =1013.81618eV)
Grid space d2=  0.409667706512a0 (KE cutoff=  45.26271Eh =1231.66098eV)
Grid space d3=  0.454388192297a0 (KE cutoff=  36.79171Eh =1001.15326eV)
================================================================================
  
WARNING in cell_grid_distribute:
Average of less than one 23-slab per proc, so workload cannot be
equally balanced between procs.

********************* Fourier parallelisation information **********************
       Coarse grid (whole simulation cell) dimensions:    143    91   416
          Real-space ('12') slabs/proc (min max mean):      3     4     3
         Recip-space ('23') slabs/proc (min max mean):      0     1     0
********************************************************************************

********************* Fourier parallelisation information **********************
       Double grid (whole simulation cell) dimensions:    286   182   832
          Real-space ('12') slabs/proc (min max mean):      6     7     6
         Recip-space ('23') slabs/proc (min max mean):      1     2     1
********************************************************************************

********************* Fourier parallelisation information **********************
         Fine grid (whole simulation cell) dimensions:    288   184   832
          Real-space ('12') slabs/proc (min max mean):      6     7     6
         Recip-space ('23') slabs/proc (min max mean):      1     2     1
         Grid scale modified to satisfy multigrid solver grid constraints
         Grid scale values after modifification:         2.01  2.02  2.00
********************************************************************************
ONETEP fine grid is 288 x 184 x 832 gridpoints, 64.5704 x 37.2798 x 189.0255 bohr.
FD multigrid is     288 x 184 x 832 gridpoints, 64.5704 x 37.2798 x 189.0255 bohr.


Atom SCF Calculation for Li : Z (AE atom) =   3 : Z (PS atom) =   3
Config String:
Orbitals (num,occ):  3     2.00 1.00 0.00
Orbitals   (num,l):  3        0    0    1
Real-space Grid (nr,dr,rmax): 1343    0.0059612519    8.0000000000
Spherical Bessel Basis (nsws,lmax,cutoff):   37    1  220.4959463253
Confining potential (l,width,scale):  0    3.0000000000  100.0000000000
Confining potential (l,width,scale):  1    3.0000000000  100.0000000000
  1         -3.7050169094   -5.2301177776    2.5388568852   -0.9989538802
  2         -6.0510920273   -4.2679357854    3.2724001845   -1.3422946715
  3         -6.7975021434   -3.8722499620    3.6648237887   -1.5325279919
  4         -7.0147472228   -3.7673066376    3.7864613280   -1.5966989055
  5         -7.0774132854   -3.7446783348    3.8157063634   -1.6161454686
  6         -7.0951992563   -3.7420177453    3.8204515040   -1.6217593843
  7         -7.1001226024   -3.7430426481    3.8200527077   -1.6233132433
  8         -7.1014239576   -3.7441529610    3.8191274553   -1.6237164860
  9         -7.1017352306   -3.7448434699    3.8184905098   -1.6238077213
 10         -7.1017916056   -3.7452114113    3.8181373932   -1.6238209669
 11         -7.1017908912   -3.7453946820    3.8179578223   -1.6238181917
 12         -7.1017822190   -3.7454828903    3.8178702968   -1.6238141227
 13         -7.1017768840   -3.7455162316    3.8178369316   -1.6238119017
 14         -7.1017732849   -3.7455353767    3.8178176959   -1.6238104459
 15         -7.1017709700   -3.7455463461    3.8178066371   -1.6238095253
 16         -7.1017695244   -3.7455526225    3.8178002910   -1.6238089565
 17         -7.1017686390   -3.7455562110    3.8177966534   -1.6238086105
 18         -7.1017681040   -3.7455582619    3.8177945697   -1.6238084022
 19         -7.1017677838   -3.7455594341    3.8177933764   -1.6238082778
 20         -7.1017675934   -3.7455601042    3.8177926929   -1.6238082039
 21         -7.1017674808   -3.7455604874    3.8177923014   -1.6238081602
 22         -7.1017674145   -3.7455607066    3.8177920771   -1.6238081344
Atom SCF converged after  22 iterations to a total energy of     -7.10176741

Atom SCF Calculation for C  : Z (AE atom) =   6 : Z (PS atom) =   4
Config String:
Orbitals (num,occ):  2     2.00 2.00
Orbitals   (num,l):  2        0    1
Real-space Grid (nr,dr,rmax): 1343    0.0059612519    8.0000000000
Spherical Bessel Basis (nsws,lmax,cutoff):   37    1  220.4959463253
Confining potential (l,width,scale):  0    3.0000000000  100.0000000000
Confining potential (l,width,scale):  1    3.0000000000  100.0000000000
  1         -5.8177092822   -1.2555419264    4.5135233515   -1.7471920893
  2         -5.6032261188   -1.3440047989    4.4246587726   -1.7090653419
  3         -5.5936068668   -1.3561735374    4.4140765627   -1.7034094417
  4         -5.5958505747   -1.3587284552    4.4121342699   -1.7022848669
  5         -5.5969687665   -1.3601698222    4.4109982405   -1.7017057890
  6         -5.5975400979   -1.3609792837    4.4103423276   -1.7013975981
  7         -5.5978435204   -1.3614297943    4.4099696476   -1.7012314972
  8         -5.5980096069   -1.3616786122    4.4097605138   -1.7011416075
  9         -5.5981021113   -1.3618152853    4.4096441572   -1.7010929151
 10         -5.5981539939   -1.3618900852    4.4095797860   -1.7010665406
 11         -5.5981831160   -1.3619309228    4.4095443105   -1.7010522599
 12         -5.5981994243   -1.3619531807    4.4095248124   -1.7010445305
 13         -5.5982085235   -1.3619652972    4.4095141175   -1.7010403487
 14         -5.5982135796   -1.3619718867    4.4095082606   -1.7010380870
 15         -5.5982163780   -1.3619754676    4.4095050573   -1.7010368642
 16         -5.5982179208   -1.3619774123    4.4095033073   -1.7010362032
 17         -5.5982187685   -1.3619784678    4.4095023522   -1.7010358460
 18         -5.5982192328   -1.3619790404    4.4095018314   -1.7010356530
 19         -5.5982194864   -1.3619793509    4.4095015476   -1.7010355488
 20         -5.5982196245   -1.3619795192    4.4095013931   -1.7010354925
 21         -5.5982196995   -1.3619796104    4.4095013090   -1.7010354621
Atom SCF converged after  21 iterations to a total energy of     -5.59821970

BC: Task: GEOMETRYOPTIMIZATION
BC: +++++++++++++++ Summary of boundary conditions ++++++++++++++
BC: |       Component       |     Keyword     |   Periodicity   |
BC: |                       |                 |     X  Y  Z [1] |
BC: |-----------------------------------------------------------|
BC: | Ion-ion               | ion_ion_bc [2]  |     P  P  P     |
BC: | Local pseudopotential | pspot_bc [3]    |     P  P  P     |
BC: | Multigrid solver      | multigrid_bc    |     P  P  P     |
BC: | Smeared ions          | smeared_ion_bc  |     P  P  P     |
BC: | Van der Waals         | vdw_bc          |     P  P  P     |
BC: +++++++++++++++++++++++++++++++++++++++++++++++++++++++++++++
BC: P: Periodic, O: Open.
BC: [1] Not strictly along X, Y, Z but rather along lattice vectors A1, A2, A3.
BC: [2] Also affected by: pbc_correction_cutoff, cutoff_coulomb_type,
BC:     is_smeared_ion_rep, is_implicit_solvent, openbc_ion_ion.
BC: [3] Also affected by: is_smeared_ion_rep, is_implicit_solvent, openbc_pspot.

================================================================================
<<<<<<<<<<<<<<<<<<<< Starting ONETEP Geometry Optimisation >>>>>>>>>>>>>>>>>>>>>
================================================================================

 Geometry Optimisation: output file is "graphite.geom"
 
 
                           -------------------------------
                                     Cell Contents
                           -------------------------------
 
            xxxxxxxxxxxxxxxxxxxxxxxxxxxxxxxxxxxxxxxxxxxxxxxxxxxxxxxxxxxx
            x  Element    Atom      Absolute co-ordinates of atoms     x
            x            Number        x           y           z       x
            x----------------------------------------------------------x
            x    Li        1       38.720630   16.310385   22.564224   x
            x    Li        2       34.773860   22.487554   22.634295   x
            x    Li        3       34.908962    4.807006   22.500911   x
            x    Li        4       23.649815   10.033374   23.051732   x
            x    Li        5       43.441676   14.061053   22.774707   x
            x    Li        6       28.262587   13.124225   22.749759   x
            x    Li        7       27.761071   19.288484   22.656070   x
            x    Li        8       33.812717   10.412387   22.641601   x
            x    Li        9       39.120935   10.852170   22.678074   x
            x    Li       10       35.205934   27.894935   22.746885   x
            x    Li       11       44.460258    8.509921   23.096208   x
            x    Li       12       32.919039   16.421962   23.073968   x
            x    Li       13       23.756637   15.861448   25.045444   x
            x    Li       14       27.069656    4.644361   22.474613   x
            x    Li       15       40.422814   21.694763   23.348528   x
            x    Li       16       39.848031    5.738518   25.843071   x
            x    Li       17       30.628938   25.063445   25.428289   x
            x    Li       18       36.764397   13.570443   26.660921   x
            x    Li       19       20.750829   11.577369   28.580587   x
            x    Li       20       40.986824   16.189647   27.439948   x
            x    Li       21       36.509390   18.867492   26.759019   x
            x    Li       22       35.618807    8.653124   27.159675   x
            x    Li       23       28.595111   16.347136   27.175469   x
            x    Li       24       30.113993    8.324404   26.172671   x
            x    Li       25       35.613263   23.804994   27.826110   x
            x    Li       26       41.144461   10.641220   27.631623   x
            x    Li       27       31.909838   12.858800   27.273030   x
            x    Li       28       26.195981   21.146164   28.167205   x
            x    Li       29       26.325822   11.584764   27.819401   x
            x    Li       30       45.270395   19.718652   28.249582   x
            x    Li       31       31.622800   20.184964   27.192849   x
            x    Li       32       24.796436    6.504252   28.154567   x
            x    Li       33       45.646752   13.039509   28.455885   x
            x    Li       34       40.604005   26.526764   28.560298   x
            x    Li       35       45.051345    6.641648   29.028325   x
            x    Li       36       33.586337    4.229084   28.612035   x
            x    Li       37       34.611920   28.730068   29.587323   x
            x    Li       38       40.005842   20.960364   29.547541   x
            x    Li       39       34.167518   16.263072   30.065968   x
            x    Li       40       38.343252   13.084420   31.683536   x
            x    Li       41       24.837597   15.937217   31.034460   x
            x    Li       42       30.680979   24.182013   31.139431   x
            x    Li       43       38.716569    7.274351   31.290155   x
            x    Li       44       34.254884   10.119912   31.756277   x
            x    Li       45       42.543102   16.318286   32.207330   x
            x    Li       46       29.795913    7.916038   31.394364   x
            x    Li       47       33.940627   21.022289   32.635391   x
            x    Li       48       24.945264   10.458094   33.167052   x
            x    Li       49       29.622190   18.509750   31.943798   x
            x    Li       50       29.837088   13.383008   32.107577   x
            x    Li       51       37.399302   24.492754   33.073567   x
            x    Li       52       42.705348   10.746493   33.568923   x
            x    Li       53       37.912799   18.332982   32.967625   x
            x    Li       54       26.580909   21.732015   34.968568   x
            x    Li       55       42.501027   21.460253   34.781213   x
            x    Li       56       34.245403    5.152008   34.862191   x
            x    Li       57       34.237533   14.978092   35.243120   x
            x    Li       58       37.019712   10.379449   36.351235   x
            x    Li       59       32.361513   25.053086   36.719493   x
            x    Li       60       27.549388   15.324985   36.753688   x
            x    Li       61       31.166414   10.637335   36.755319   x
            x    Li       62       39.480642   15.348728   37.182503   x
            x    Li       63       31.630837   19.068614   36.777512   x
            x    Li       64       36.895829   20.440032   37.675434   x
            x    Li       65       34.243827   14.866661   40.882082   x
            x    C        66       31.004466   25.493876   12.887326   x
            x    C        67       39.077507   20.834019   12.896893   x
            x    C        68       43.113673   18.503856   12.929329   x
            x    C        69       10.827428   37.142395   12.851047   x
            x    C        70       47.149463   16.173299   12.944664   x
            x    C        71       14.862545   34.812569   12.891445   x
            x    C        72       51.185054   13.842786   12.941308   x
            x    C        73       22.933316   30.153024   12.909328   x
            x    C        74       59.257272    9.182160   12.891549   x
            x    C        75       18.898134   32.482739   12.910874   x
            x    C        76       55.221003   11.512363   12.925184   x
            x    C        77       26.968558   27.823562   12.899507   x
            x    C        78       63.293000    6.852427   12.844130   x
            x    C        79       35.041092   23.163995   12.878170   x
            x    C        80       22.933089   34.811975   12.923370   x
            x    C        81       59.257244   13.842824   12.920579   x
            x    C        82       31.004599   30.153054   12.937791   x
            x    C        83        2.757634    4.522708   12.808800   x
            x    C        84       39.077588   25.494106   12.944038   x
            x    C        85        6.792579    2.192668   12.812838   x
            x    C        86       43.113457   23.164350   12.944626   x
            x    C        87       47.149079   20.833904   12.939909   x
            x    C        88       51.184782   18.503510   12.932617   x
            x    C        89       18.897915   37.141902   12.918298   x
            x    C        90       55.220927   16.173157   12.927628   x
            x    C        91       26.968541   32.482425   12.928042   x
            x    C        92       63.293111   11.512658   12.904738   x
            x    C        93       35.041264   27.823557   12.943241   x
            x    C        94       59.257055   18.503231   12.903265   x
            x    C        95       31.004869   34.812002   12.927524   x
            x    C        96        2.757931    9.182703   12.884342   x
            x    C        97       39.077654   30.153096   12.955269   x
            x    C        98        6.792896    6.852619   12.874230   x
            x    C        99       43.113108   27.823524   12.947574   x
            x    C       100       10.827677    4.522306   12.883520   x
            x    C       101       47.148385   25.493602   12.930173   x
            x    C       102       14.862717    2.192305   12.903445   x
            x    C       103       51.184285   23.163428   12.909851   x
            x    C       104       55.220691   20.833339   12.899210   x
            x    C       105       26.968724   37.141528   12.911788   x
            x    C       106       63.293038   16.173062   12.913215   x
            x    C       107       35.041362   32.482578   12.948386   x
            x    C       108       22.933229    2.191691   12.909828   x
            x    C       109       59.256853   23.162953   12.845275   x
            x    C       110        2.758029   13.842945   12.917794   x
            x    C       111       39.077719   34.811482   12.934578   x
            x    C       112        6.793180   11.512909   12.915452   x
            x    C       113       43.112957   32.481888   12.937322   x
            x    C       114       10.828237    9.182763   12.912797   x
            x    C       115       47.148019   30.152493   12.917903   x
            x    C       116       14.863123    6.852404   12.913878   x
            x    C       117       51.183788   27.822735   12.883117   x
            x    C       118       18.897902    4.521982   12.913648   x
            x    C       119       55.220307   25.492870   12.851151   x
            x    C       120       63.292779   20.833048   12.868716   x
            x    C       121       35.041432   37.141286   12.906928   x
            x    C       122       22.933414    6.852045   12.873842   x
            x    C       123       59.256500   27.822402   12.770234   x
            x    C       124       31.004990    2.191640   12.870080   x
            x    C       125        2.757906   18.503049   12.900779   x
            x    C       126        6.793256   16.173112   12.920349   x
            x    C       127       43.113204   37.140585   12.922414   x
            x    C       128       10.828448   13.843204   12.922873   x
            x    C       129       47.148240   34.811216   12.911274   x
            x    C       130       14.863361   11.513051   12.915146   x
            x    C       131       51.183765   32.481922   12.868101   x
            x    C       132       18.898259    9.182644   12.899671   x
            x    C       133       55.220063   30.152389   12.808363   x
            x    C       134       26.968958    4.521606   12.855138   x
            x    C       135       63.292509   25.492589   12.784413   x
            x    C       136        2.757526   23.162815   12.837837   x
            x    C       137       39.077732    2.190750   12.895329   x
            x    C       138        6.792919   20.833055   12.888911   x
            x    C       139       22.933425   11.512960   12.833765   x
            x    C       140       59.256324   32.482363   12.727066   x
            x    C       141       31.004986    6.851484   12.777676   x
            x    C       142       10.828376   18.503369   12.911420   x
            x    C       143       14.863350   16.173588   12.905864   x
            x    C       144       51.184226   37.141397   12.876428   x
            x    C       145       18.898185   13.843537   12.880421   x
            x    C       146       55.220167   34.811998   12.802382   x
            x    C       147       26.968954    9.182208   12.782395   x
            x    C       148       63.292310   30.152397   12.705405   x
            x    C       149       35.041545    4.521107   12.831048   x
            x    C       150        2.757214   27.822597   12.754563   x
            x    C       151       39.077668    6.850890   12.850591   x
            x    C       152        6.792547   25.492957   12.831664   x
            x    C       153       43.113431    4.520442   12.910720   x
            x    C       154       10.828074   23.163273   12.884081   x
            x    C       155       47.148788    2.190775   12.915416   x
            x    C       156       14.863348   20.833694   12.893635   x
            x    C       157       22.933098   16.174111   12.813245   x
            x    C       158       59.256651   37.142357   12.751277   x
            x    C       159       31.005128   11.512380   12.705171   x
            x    C       160       18.898151   18.504113   12.868003   x
            x    C       161       26.968820   13.843319   12.740144   x
            x    C       162       63.292325   34.812720   12.691206   x
            x    C       163       35.041479    9.181641   12.755228   x
            x    C       164       22.933142   20.834626   12.828659   x
            x    C       165        2.757349   32.482735   12.705054   x
            x    C       166       39.077607   11.511951   12.828718   x
            x    C       167        6.792318   30.152842   12.779218   x
            x    C       168       43.113597    9.181250   12.907795   x
            x    C       169       10.827655   27.823216   12.853244   x
            x    C       170       47.149206    6.851106   12.928609   x
            x    C       171       14.863337   25.493598   12.885685   x
            x    C       172       51.184720    4.521336   12.902929   x
            x    C       173       18.898414   23.164055   12.873593   x
            x    C       174       55.220712    2.191788   12.839064   x
            x    C       175       31.005043   16.173922   12.712231   x
            x    C       176       26.968626   18.504705   12.760589   x
            x    C       177       35.041430   13.842828   12.737865   x
            x    C       178       22.933333   25.494154   12.870377   x
            x    C       179       59.256997    4.522079   12.823542   x
            x    C       180        2.757502   37.142832   12.729789   x
            x    C       181       39.077518   16.173176   12.847229   x
            x    C       182        6.792309   34.812733   12.770233   x
            x    C       183       43.113682   13.842624   12.914574   x
            x    C       184       10.827449   32.482962   12.838038   x
            x    C       185       47.149438   11.512227   12.941481   x
            x    C       186       14.863025   30.153149   12.884850   x
            x    C       187       51.185009    9.181828   12.930005   x
            x    C       188       18.898427   27.823524   12.892915   x
            x    C       189       55.220974    6.851724   12.890748   x
            x    C       190       31.004769   20.834501   12.789750   x
            x    C       191       26.968618   23.164588   12.830725   x
            x    C       192       63.292652    2.192797   12.753730   x
            x    C       193       35.041241   18.503851   12.789859   x
            x    C       194       29.656547   27.823489   12.913366   x
            x    C       195        1.410779    2.192933   12.757418   x
            x    C       196       37.729448   23.164289   12.909583   x
            x    C       197       41.765897   20.834257   12.928387   x
            x    C       198       45.802137   18.503786   12.942441   x
            x    C       199       13.515934   37.142070   12.885757   x
            x    C       200       49.837904   16.173255   12.942891   x
            x    C       201       17.551383   34.812253   12.912013   x
            x    C       202       53.873630   13.842758   12.935060   x
            x    C       203       25.621294   30.153073   12.916684   x
            x    C       204       61.946035    9.182312   12.883503   x
            x    C       205       33.692991   25.493851   12.907357   x
            x    C       206       21.586500   32.482461   12.919300   x
            x    C       207       57.909975   11.512346   12.916826   x
            x    C       208       29.656606   32.482576   12.936077   x
            x    C       209        1.411024    6.852419   12.846377   x
            x    C       210       37.729561   27.823783   12.952062   x
            x    C       211        5.446128    4.522511   12.831263   x
            x    C       212       41.765807   25.494180   12.949301   x
            x    C       213        9.480949    2.192413   12.850228   x
            x    C       214       45.801585   23.163957   12.941224   x
            x    C       215       49.837275   20.833618   12.929965   x
            x    C       216       53.873403   18.503348   12.922989   x
            x    C       217       25.621291   34.811866   12.926173   x
            x    C       218       61.946052   13.842847   12.917476   x
            x    C       219       33.692770   30.153188   12.949040   x
            x    C       220       21.586372   37.141516   12.922563   x
            x    C       221       57.909847   16.173151   12.921433   x
            x    C       222        1.411238   11.512712   12.906225   x
            x    C       223       37.729501   32.482378   12.949046   x
            x    C       224       17.551476    2.191808   12.916596   x
            x    C       225       53.872923   23.163197   12.888781   x
            x    C       226       61.945831   18.503204   12.899163   x
            x    C       227       29.657033   37.141611   12.907022   x
            x    C       228        5.446385    9.182650   12.894255   x
            x    C       229       41.765446   30.152905   12.948727   x
            x    C       230        9.481393    6.852300   12.892851   x
            x    C       231       45.800775   27.823205   12.933741   x
            x    C       232       13.516432    4.522037   12.903897   x
            x    C       233       49.836559   25.493195   12.909566   x
            x    C       234       57.909524   20.833278   12.885648   x
            x    C       235       33.692987   34.811949   12.930850   x
            x    C       236        1.411144   16.173085   12.914916   x
            x    C       237       37.729631   37.140906   12.913330   x
            x    C       238        5.446552   13.843051   12.921702   x
            x    C       239       41.765363   34.811221   12.932505   x
            x    C       240        9.481752   11.512916   12.920292   x
            x    C       241       45.800610   32.481845   12.923658   x
            x    C       242       13.516803    9.182595   12.917187   x
            x    C       243       49.836075   30.152414   12.891047   x
            x    C       244       17.551701    6.852007   12.913103   x
            x    C       245       53.872386   27.822653   12.847471   x
            x    C       246       25.621761    2.191555   12.896820   x
            x    C       247       61.945555   23.162953   12.833109   x
            x    C       248       21.586684    4.521561   12.904252   x
            x    C       249       57.909163   25.492785   12.821293   x
            x    C       250        1.410911   20.833061   12.871607   x
            x    C       251       29.657479    4.521472   12.832575   x
            x    C       252        5.446374   18.503163   12.906915   x
            x    C       253        9.481807   16.173352   12.921541   x
            x    C       254       45.800994   37.140751   12.918253   x
            x    C       255       13.516958   13.843397   12.917516   x
            x    C       256       49.836266   34.811599   12.886861   x
            x    C       257       17.551837   11.513017   12.901771   x
            x    C       258       53.872313   32.482193   12.824842   x
            x    C       259       25.622018    6.851790   12.837649   x
            x    C       260       61.945228   27.822502   12.746167   x
            x    C       261       33.693562    2.191319   12.868587   x
            x    C       262       21.586807    9.182361   12.872559   x
            x    C       263       57.908819   30.152387   12.762585   x
            x    C       264        1.410524   25.492725   12.788810   x
            x    C       265       37.729936    4.520616   12.855608   x
            x    C       266        5.445981   23.163020   12.853985   x
            x    C       267       41.765805    2.190448   12.910615   x
            x    C       268        9.481582   20.833445   12.897797   x
            x    C       269       29.657407    9.181905   12.744220   x
            x    C       270       13.516924   18.503824   12.906181   x
            x    C       271       17.551797   16.173975   12.886772   x
            x    C       272       53.872772   37.141707   12.839255   x
            x    C       273       25.621880   11.512873   12.781080   x
            x    C       274       61.945024   32.482589   12.695964   x
            x    C       275       33.693762    6.851170   12.777910   x
            x    C       276       21.586646   13.843589   12.843873   x
            x    C       277       57.908855   34.812229   12.753374   x
            x    C       278        1.410399   30.152495   12.711199   x
            x    C       279       37.729835    9.181361   12.804924   x
            x    C       280        5.445677   27.822856   12.784891   x
            x    C       281       41.765969    6.850684   12.892286   x
            x    C       282        9.481079   25.493296   12.858005   x
            x    C       283       45.801638    4.520703   12.921581   x
            x    C       284       13.516758   23.163781   12.890521   x
            x    C       285       49.836986    2.191258   12.900835   x
            x    C       286       17.551948   20.834353   12.879752   x
            x    C       287       29.657421   13.843164   12.703960   x
            x    C       288       25.621580   16.174107   12.765225   x
            x    C       289       61.945262   37.142535   12.722370   x
            x    C       290       33.693656   11.512151   12.714869   x
            x    C       291       21.586489   18.504584   12.836001   x
            x    C       292        1.410569   34.812822   12.696754   x
            x    C       293       37.729845   13.842686   12.799329   x
            x    C       294        5.445607   32.482845   12.744374   x
            x    C       295       41.765803   11.511905   12.887930   x
            x    C       296        9.480690   30.153060   12.823697   x
            x    C       297       45.802043    9.181386   12.931475   x
            x    C       298       13.516538   27.823513   12.877951   x
            x    C       299       49.837617    6.851414   12.924300   x
            x    C       300       17.551979   25.494000   12.886549   x
            x    C       301       53.873371    4.521544   12.880148   x
            x    C       302       25.621559   20.834739   12.802460   x
            x    C       303       21.586680   23.164705   12.857555   x
            x    C       304       57.909440    2.192150   12.802307   x
            x    C       305       29.657296   18.504642   12.743107   x
            x    C       306       33.693590   16.173733   12.733222   x
            x    C       307       29.656818   23.164446   12.834262   x
            x    C       308       37.729705   18.503784   12.841785   x
            x    C       309        5.445764   37.142592   12.765349   x
            x    C       310       41.765837   16.173234   12.901952   x
            x    C       311        9.480722   34.812629   12.819636   x
            x    C       312       45.802239   13.842794   12.939448   x
            x    C       313       13.516047   32.482871   12.875154   x
            x    C       314       49.837982   11.512287   12.941701   x
            x    C       315       17.551671   30.153186   12.900557   x
            x    C       316       53.873658    9.181883   12.919239   x
            x    C       317       25.621468   25.494290   12.868128   x
            x    C       318       61.945752    4.522341   12.805002   x
            x    C       319       33.693384   20.834376   12.813235   x
            x    C       320       21.586790   27.823698   12.893862   x
            x    C       321       57.909854    6.851841   12.871322   x
            x    C       322       20.229278   34.805957   19.035160   x
            x    C       323       56.588907   13.842595   19.076738   x
            x    C       324        4.103650    2.191330   18.916612   x
            x    C       325       40.468060   23.178421   19.118522   x
            x    C       326       24.265399   32.479885   19.038938   x
            x    C       327       60.616885   11.511690   19.051497   x
            x    C       328        0.077237    4.521062   18.933962   x
            x    C       329       36.414371   25.498080   19.100641   x
            x    C       330       16.193995   37.137181   19.026097   x
            x    C       331       52.563105   16.174810   19.079586   x
            x    C       332       28.302835   30.158623   19.075515   x
            x    C       333       48.536762   18.510918   19.080935   x
            x    C       334       32.345615   27.833744   19.126268   x
            x    C       335       44.509753   20.847514   19.112180   x
            x    C       336       28.306981   34.805860   19.055541   x
            x    C       337       12.161151    2.189284   19.001886   x
            x    C       338       48.532650   23.170575   19.076508   x
            x    C       339       32.350339   32.491483   19.124114   x
            x    C       340       56.588286   18.504975   19.049515   x
            x    C       341        4.104145    6.851962   18.987842   x
            x    C       342       40.468604   27.836785   19.138509   x
            x    C       343       24.260531   37.122738   19.032830   x
            x    C       344       60.616086   16.173416   19.060133   x
            x    C       345        8.131671    4.520845   18.983318   x
            x    C       346       44.500543   25.506505   19.116857   x
            x    C       347        0.075886    9.182264   19.014967   x
            x    C       348       36.414798   30.166723   19.136954   x
            x    C       349       52.560992   20.837394   19.049484   x
            x    C       350       20.225727    2.181417   19.037428   x
            x    C       351       56.588626   23.164873   18.988837   x
            x    C       352       16.192402    4.516173   19.047910   x
            x    C       353       52.558375   25.495975   19.010552   x
            x    C       354       12.161448    6.850261   19.043464   x
            x    C       355       48.527823   27.826930   19.060806   x
            x    C       356       32.354891   37.126276   19.016384   x
            x    C       357        4.103412   11.513347   19.057918   x
            x    C       358       40.455750   32.486711   19.114769   x
            x    C       359       60.617089   20.833866   19.002517   x
            x    C       360        8.132230    9.182548   19.047122   x
            x    C       361       44.494256   30.157253   19.105260   x
            x    C       362        0.074206   13.843194   19.064311   x
            x    C       363       36.408136   34.811204   19.091143   x
            x    C       364       28.312045    2.170857   18.945680   x
            x    C       365       20.218902    6.839597   19.033858   x
            x    C       366       56.588847   27.823602   18.936061   x
            x    C       367        4.102873   16.173673   19.069485   x
            x    C       368       40.454273   37.129628   19.053757   x
            x    C       369       24.255822    4.506723   18.956134   x
            x    C       370       60.618180   25.493570   18.928704   x
            x    C       371        8.132268   13.844122   19.081207   x
            x    C       372       44.492372   34.806490   19.078225   x
            x    C       373        0.074234   18.503187   19.036776   x
            x    C       374       16.191032    9.180548   19.065283   x
            x    C       375       52.557664   30.152627   18.983384   x
            x    C       376       12.162056   11.513432   19.074416   x
            x    C       377       48.525079   32.481030   19.046875   x
            x    C       378       16.190599   13.845137   19.057943   x
            x    C       379       52.558350   34.809710   18.980224   x
            x    C       380       28.311250    6.845367   18.804272   x
            x    C       381       12.162619   16.174899   19.063988   x
            x    C       382       48.526890   37.134417   19.038670   x
            x    C       383       32.360935    4.508114   18.841367   x
            x    C       384       20.216991   11.514750   19.047912   x
            x    C       385       56.589692   32.482011   18.914851   x
            x    C       386        4.103410   20.832779   19.012705   x
            x    C       387       24.257598    9.176907   18.898117   x
            x    C       388       60.619330   30.152916   18.881681   x
            x    C       389        8.132726   18.503762   19.054787   x
            x    C       390        0.075608   23.162815   18.959917   x
            x    C       391       36.411234    2.173690   18.971503   x
            x    C       392       28.306357   11.506469   18.734471   x
            x    C       393       20.219527   16.180257   19.011488   x
            x    C       394       56.591028   37.139355   18.929935   x
            x    C       395        4.103589   25.492434   18.937363   x
            x    C       396       40.462568    4.499204   18.984587   x
            x    C       397       24.254155   13.849387   18.942331   x
            x    C       398       60.620115   34.811660   18.875700   x
            x    C       399        8.132983   23.162950   18.993050   x
            x    C       400       44.494726    2.173130   19.043655   x
            x    C       401        0.076145   27.822999   18.891811   x
            x    C       402       36.413233    6.833424   18.784161   x
            x    C       403       16.192753   18.506434   19.018852   x
            x    C       404       12.163224   20.834626   19.022497   x
            x    C       405       32.350687    9.178676   18.674884   x
            x    C       406       16.195369   23.166924   18.987900   x
            x    C       407       52.561200    2.186519   19.000081   x
            x    C       408       28.298048   16.178970   18.790951   x
            x    C       409       12.163778   25.494212   18.983197   x
            x    C       410       48.535167    4.508541   19.036918   x
            x    C       411       32.355277   13.843527   18.741724   x
            x    C       412       20.224446   20.842598   18.966663   x
            x    C       413        4.103151   30.152459   18.888472   x
            x    C       414       40.458615    9.159523   18.909660   x
            x    C       415       24.254705   18.514195   18.930473   x
            x    C       416        8.132306   27.822842   18.940315   x
            x    C       417       44.503659    6.825969   19.018230   x
            x    C       418        0.076551   32.482648   18.861258   x
            x    C       419       36.406723   11.501542   18.793761   x
            x    C       420       20.229191   25.500399   18.968217   x
            x    C       421       56.591101    4.517918   18.978298   x
            x    C       422        4.103087   34.811921   18.880641   x
            x    C       423       40.456714   13.836567   19.000465   x
            x    C       424       24.258169   23.180753   18.924379   x
            x    C       425       60.620408    2.190210   18.912406   x
            x    C       426        8.131250   32.482421   18.919054   x
            x    C       427       44.508992   11.503937   19.097597   x
            x    C       428        0.077273   37.141186   18.876004   x
            x    C       429       36.410329   16.176432   18.814104   x
            x    C       430       16.197226   27.825514   18.986264   x
            x    C       431       52.564412    6.845471   19.038354   x
            x    C       432       28.304205   20.852359   18.785161   x
            x    C       433       12.163443   30.153251   18.965785   x
            x    C       434       48.546290    9.173458   19.062782   x
            x    C       435       32.355791   18.503739   18.787803   x
            x    C       436       16.196385   32.481817   19.003033   x
            x    C       437       52.565057   11.509774   19.080102   x
            x    C       438       28.300384   25.506017   18.986120   x
            x    C       439       12.162277   34.811059   18.972884   x
            x    C       440       48.546361   13.843992   19.088466   x
            x    C       441       32.349264   23.166636   18.914535   x
            x    C       442       20.230883   30.154133   19.004129   x
            x    C       443       56.589675    9.178933   19.042608   x
            x    C       444       40.458540   18.514416   19.030256   x
            x    C       445       24.264892   27.831002   18.988409   x
            x    C       446       60.619260    6.850029   18.983072   x
            x    C       447        8.130887   37.141074   18.934194   x
            x    C       448       44.511123   16.186376   19.079934   x
            x    C       449       36.409703   20.839293   18.877277   x
            x    C       450       29.641976   27.833309   19.076887   x
            x    C       451       41.816943   20.849088   19.096486   x
            x    C       452       25.609742   30.155675   19.030136   x
            x    C       453       61.961911    9.181113   19.016110   x
            x    C       454        1.420010    2.190979   18.901474   x
            x    C       455       37.758047   23.164505   19.061509   x
            x    C       456       45.857071   18.519482   19.092224   x
            x    C       457       17.539470   34.809232   19.021862   x
            x    C       458       53.906158   13.843028   19.082373   x
            x    C       459       21.574873   32.480418   19.024635   x
            x    C       460       57.932748   11.510910   19.060192   x
            x    C       461       13.506273   37.139523   18.999719   x
            x    C       462       49.882502   16.177838   19.080376   x
            x    C       463       33.696865   25.497387   19.063376   x
            x    C       464       29.653163   32.483782   19.092869   x
            x    C       465       49.876946   20.842111   19.069041   x
            x    C       466        5.446752    4.521279   18.958031   x
            x    C       467       41.813025   25.513181   19.138545   x
            x    C       468       25.610154   34.802754   19.043838   x
            x    C       469       61.960240   13.842911   19.062924   x
            x    C       470        1.419810    6.851714   18.975524   x
            x    C       471       37.768841   27.835417   19.130943   x
            x    C       472        9.474820    2.190578   18.969579   x
            x    C       473       45.847901   23.177109   19.102644   x
            x    C       474       53.905152   18.507246   19.059670   x
            x    C       475       21.571265   37.131011   19.036753   x
            x    C       476       57.932149   16.174226   19.064975   x
            x    C       477       33.698946   30.166757   19.142716   x
            x    C       478       17.536243    2.186510   19.040852   x
            x    C       479       53.903845   23.167239   19.013827   x
            x    C       480       29.658808   37.122993   19.009702   x
            x    C       481       13.504705    4.519127   19.032273   x
            x    C       482       49.873066   25.499942   19.049067   x
            x    C       483       33.705890   34.810282   19.082175   x
            x    C       484        5.447011    9.182846   19.032649   x
            x    C       485       41.804567   30.161616   19.122207   x
            x    C       486       61.960259   18.503701   19.034522   x
            x    C       487        1.418695   11.513221   19.049328   x
            x    C       488       37.763182   32.494062   19.125365   x
            x    C       489        9.475497    6.851247   19.024824   x
            x    C       490       45.840155   27.833234   19.097654   x
            x    C       491       57.932418   20.835470   19.011905   x
            x    C       492        5.447035   13.843786   19.076509   x
            x    C       493       41.800814   34.808241   19.086499   x
            x    C       494       25.605659    2.169419   18.975832   x
            x    C       495       61.961310   23.163609   18.959273   x
            x    C       496        1.417896   16.173382   19.062061   x
            x    C       497       37.759992   37.126573   19.047551   x
            x    C       498        9.476105   11.513489   19.072961   x
            x    C       499       45.836838   32.482482   19.080967   x
            x    C       500       17.532983    6.847402   19.055696   x
            x    C       501       53.902422   27.824904   18.971764   x
            x    C       502       21.560766    4.509178   19.012525   x
            x    C       503       57.933092   25.494373   18.945327   x
            x    C       504       13.505243    9.181771   19.064170   x
            x    C       505       49.870457   30.154024   19.029656   x
            x    C       506       17.531114   11.513104   19.064521   x
            x    C       507       53.902645   32.481340   18.954420   x
            x    C       508       29.652621    4.509839   18.856759   x
            x    C       509       13.505485   13.844381   19.068828   x
            x    C       510       49.870145   34.808124   19.022208   x
            x    C       511       33.702158    2.174081   18.936061   x
            x    C       512        5.447202   18.503269   19.050480   x
            x    C       513       25.607993    6.841266   18.879938   x
            x    C       514       61.962264   27.823519   18.893414   x
            x    C       515        1.418602   20.832749   19.002755   x
            x    C       516        9.476555   16.174338   19.072896   x
            x    C       517       45.838350   37.129496   19.056390   x
            x    C       518       21.562414    9.176176   19.005235   x
            x    C       519       57.933903   30.152722   18.903490   x
            x    C       520        5.447319   23.162530   18.979585   x
            x    C       521       41.803065    2.172282   19.026725   x
            x    C       522       25.606057   11.511671   18.886482   x
            x    C       523       61.963226   32.482508   18.864879   x
            x    C       524        1.419309   25.492838   18.924026   x
            x    C       525       37.759242    4.504208   18.908464   x
            x    C       526       17.532992   16.176080   19.029797   x
            x    C       527       53.904466   37.137467   18.966376   x
            x    C       528       21.563191   13.849861   19.011159   x
            x    C       529       57.934961   34.810881   18.899601   x
            x    C       530       29.652356    9.176837   18.738589   x
            x    C       531       13.506534   18.504663   19.037039   x
            x    C       532       33.702907    6.840383   18.742372   x
            x    C       533        9.477062   20.833467   19.025952   x
            x    C       534       29.646252   13.841431   18.709831   x
            x    C       535       13.507836   23.164518   18.997727   x
            x    C       536       49.874527    2.181041   19.026479   x
            x    C       537       33.698211   11.507192   18.645128   x
            x    C       538        5.446875   27.822642   18.916748   x
            x    C       539       41.804890    6.822739   18.989903   x
            x    C       540       25.600118   16.180997   18.882459   x
            x    C       541       61.963753   37.140708   18.880118   x
            x    C       542        1.419133   30.152929   18.873120   x
            x    C       543       37.759037    9.165971   18.800668   x
            x    C       544        9.477128   25.492950   18.970760   x
            x    C       545       45.847445    4.495560   19.037275   x
            x    C       546       17.537027   20.837275   18.988374   x
            x    C       547       21.563230   18.513371   18.974251   x
            x    C       548        5.446145   32.482257   18.889502   x
            x    C       549       41.807606   11.498014   19.006272   x
            x    C       550        1.419443   34.811885   18.864658   x
            x    C       551       37.749419   13.839725   18.859915   x
            x    C       552       17.540366   25.496640   18.978521   x
            x    C       553       53.906091    4.514834   19.003825   x
            x    C       554       21.569684   23.172829   18.947779   x
            x    C       555       57.935339    2.188590   18.934187   x
            x    C       556       29.647575   18.511627   18.757941   x
            x    C       557       13.508618   27.824082   18.977310   x
            x    C       558       49.882043    6.838435   19.042464   x
            x    C       559       33.695410   16.175795   18.751841   x
            x    C       560       25.601747   20.852230   18.875666   x
            x    C       561        9.476175   30.152810   18.938125   x
            x    C       562       45.861180    9.165351   19.035969   x
            x    C       563       29.646572   23.180894   18.904346   x
            x    C       564       13.507974   32.482510   18.979234   x
            x    C       565       49.886653   11.509349   19.080812   x
            x    C       566       33.698345   20.838957   18.801611   x
            x    C       567        5.446136   37.141201   18.903647   x
            x    C       568       41.811207   16.182687   19.050424   x
            x    C       569       25.605706   25.506119   18.950142   x
            x    C       570       61.963491    4.520113   18.937038   x
            x    C       571       37.754392   18.508307   18.867270   x
            x    C       572        9.475076   34.811735   18.937564   x
            x    C       573       45.863710   13.845974   19.082687   x
            x    C       574       17.541797   30.153697   18.996534   x
            x    C       575       53.906577    9.176620   19.055354   x
            x    C       576       21.574058   27.827808   18.980748   x
            x    C       577       57.934120    6.848082   18.999082   x
            xxxxxxxxxxxxxxxxxxxxxxxxxxxxxxxxxxxxxxxxxxxxxxxxxxxxxxxxxxxx
 

Determining parallel strategy ...
... using space-filling curve
... NGWF load balancing: max     21;  min     17;  average     19
... Projector load balancing: max      6;  min      5;  average      5
... done
Calculating Ewald energy ...
              Ewald: real-space energy =        30922.550175
        Ewald: reciprocal-space energy =       146449.452965
         Ewald: (sum_charge)**2 energy =         3928.507019
         Ewald: (sum_charge**2) energy =          329.255461
                          Ewald energy =       173114.240660
======================= Empirical dispersion information =======================
Model : Grimme D2
Dispersion Correction Energy: -0.20998127E+01 Hartree
================================================================================
Basis initialisation ...... NGWF spheres initialised
... Projector spheres initialised
... NGWF tight boxes initialised
... Tight-boxes gathered
... NGWF basis size (local,global):        284723     37391151
... Nonlocal pseudopotential projector initialisation
... done

========================== Sparse matrix information ===========================
                        Overlap matrix filling:  26.28%
                        Density kernel filling: 100.00% (known to be dense)
              NGWF-Proj overlap matrix filling:   6.02%
                    Hamiltonian matrix filling:  27.46%
                  NGWF diagonal matrix filling:   0.17%
                             KS matrix filling: 100.00% 
                           KSKS matrix filling: 100.00% 
================================================================================

Sparse matrix initialisation ... done

Generating smeared ion density ... done
Smeared ion self correction:     -4376.895494
Smeared ion non-self correction: -173132.953549
IS: Initialising Boltzmann terms in implicit solvation...
----------------------------------------------------------
|           Boltzmann ions in implicit solvent:          |
+--------------------------------------------------------+
|       Name | Charge |  Conc. (mol/L)  |  Conc. (a.u.)  |
|         Li |  1.000 |    0.10000E+01  |   0.89239E-04  |
|        PF6 | -1.000 |    0.10000E+01  |   0.89239E-04  |
----------------------------------------------------------

IS: Generating smoothed hard-core steric potential ...
IS: - smearing:        0.40000E+00 bohr.
---------------------------------------------------------------
|      Atomic hard-core steric potential radial cut-offs      |
+-------------------------------------------------------------+
|   Species |   Symbol |            Radial cut-off (bohr)     |
|           |          |     solute      solvent        total |
|         1 |       Li |   3.558867 +   3.000000 =   6.558867 |
|         2 |        C |   3.308495 +   3.000000 =   6.308495 |
---------------------------------------------------------------

IS: Debye length is    6.18 bohr. PB equation variant: FULL. Use_fas: F.
IS: Exp_cap:   50.00. Steric pot: SMOOTHED SPHERES.
NGWF initialisation ... done
============ Calculation of NGWF S^-1 using Hotelling algorithm ================ 
         Iteration  |  Frobenius norm and Maximum abs value    (of I-S*S_n^-1)   
               1       0.48281125E+02     0.99534191E+00
               2       0.47874963E+02     0.99070679E+00
               3       0.47132436E+02     0.98150481E+00
               4       0.45876552E+02     0.96336948E+00
               5       0.43998425E+02     0.92814062E+00
               6       0.41568985E+02     0.86164397E+00
               7       0.38688280E+02     0.78312062E+00
               8       0.35418287E+02     0.75805707E+00
               9       0.32083292E+02     0.73001899E+00
              10       0.28914340E+02     0.70082356E+00
              11       0.25528707E+02     0.66697350E+00
              12       0.21329400E+02     0.62866864E+00
              13       0.16074184E+02     0.58902703E+00
              14       0.10382171E+02     0.54114996E+00
              15       0.58937535E+01     0.47959650E+00
              16       0.37733721E+01     0.40003416E+00
              17       0.27611795E+01     0.31950129E+00
              18       0.19363422E+01     0.25030694E+00
              19       0.12717327E+01     0.18358879E+00
              20       0.73309108E+00     0.11758020E+00
              21       0.30781206E+00     0.54473817E-01
              22       0.65782436E-01     0.12654044E-01
              23       0.35072030E-02     0.72631585E-03
              24       0.11486808E-04     0.24553315E-05
              25       0.13123771E-09     0.28121505E-10
              26       0.79106844E-13     0.97699626E-14
================================================================================
Calculating core density ... ... done

Generating solute cavity for implicit solvation ... done
MG DL_MG: Calling solver with defect correction order = 8
MG DL_MG: Solver finished
MG Fixed charge (1/2 \int rho_f phi dr) energy term:                 631.335437
MG Mobile charge (1/2 \int rho_m phi dr) energy term:                 -0.000000
MG Osmotic pressure (-kT \int dr \sum_i c_i(r)) energy term:          -0.066736
MG Mobile ion acc. corr. (\int dr \sum_i c_i(r) * V_steric(r)):        0.000236
MG Ion atmosph. rearr. (kT \int dr \sum_i c_i(r)*ln(c_i(r)/c^0):      -0.000235
MG Chemical potential (-\sum_i \mu_i \int dr c_i(r)) energy term:     -0.000000
MG                                                               --------------
MG Mean-field contribution to grand potential                        631.268701

MG Check from alternate expression:
MG Fixed charge (1/2 \int rho_f phi dr) energy term:                 631.335437
MG Minus mobile charge (-1/2 \int rho_m phi dr) energy term:           0.000000
MG -kTV\Gamma \sum_i c^bulk_i(r) (osmotic pressure) energy term:      -0.066736
MG                                                               --------------
MG Mean-field contribution to grand potential:                       631.268701

IS: MG box volume:     455016.600 a0^3. Accessible fraction: 0.870346. PBC.
IS: Charge neutralisation scheme: COUNTERIONS_AUTO.

+--------------------------- Chemical potential --------------------------+
|   # | Name | Bulk conc. |    mu_ideal   |   mu_excess   |    mu_total   |
|-------------------------------------------------------------------------|
|   1 |   Li |  1.0000061 |   0.000000006 |  -0.000000006 |   0.000000000 |
|   2 |  PF6 |  1.0000061 |   0.000000006 |  -0.000000006 |  -0.000000000 |
|-------------------------------------------------------------------------|

+----------------- Boltzmann ion concentration and charge -----------------+
|   # | Name | Bulk conc. | Average conc. | Neutr. ratio |    Total charge |
|--------------------------------------------------------------------------|
|   1 |   Li |  1.0000061 |   1.000006100 | 0.698502E+08 |    35.340770496 | 
|   2 |  PF6 |  1.0000061 |   1.000006100 | -.698502E+08 |   -35.340770496 | 
+--------------------------------------------------------------------------+
                                                    total:    -0.000000000*

+---- Concentration difference from bulk value on simcell faces (mol/L) ---+
|   # | Name | Face | Bulk conc. | Actual conc. |  Difference |  RMS diff. |
|--------------------------------------------------------------------------|
|   1 |   Li | Zmin |  1.0000000 |    0.9934708 |  -0.0065292 |  0.0065338 | 
|   1 |   Li | Zmax |  1.0000000 |    0.9937495 |  -0.0062505 |  0.0062549 | 
+..........................................................................+
|   1 |   Li |  AVG |  1.0000000 |    0.9936102 |  -0.0063898 |  0.0063959 | 
+--------------------------------------------------------------------------+
|   2 |  PF6 | Zmin |  1.0000000 |    1.0065721 |   0.0065721 |  0.0065769 | 
|   2 |  PF6 | Zmax |  1.0000000 |    1.0062899 |   0.0062899 |  0.0062944 | 
+..........................................................................+
|   2 |  PF6 |  AVG |  1.0000000 |    1.0064310 |   0.0064310 |  0.0064372 | 
+--------------------------------------------------------------------------+
+--------------------------------------------------------------------------+
|      OVERALL      |  1.0000000 |    1.0000206 |   0.0000206 |  0.0064166 | 
+--------------------------------------------------------------------------+
Up spin density kernel initialisation ...... done
Down spin density kernel initialisation ...... done

Writing density kernel to file "graphite.dkn" ... done

>>> Optimising kernel for current NGWFs:

--------------------------- Ensemble-DFT optimisation --------------------------
Running ScaLAPACK on  128 processor(s).
(P)DSYGVX in subroutine dense_eigensolve returned info=    2
 ifail= 2*0
 iclustr= 1681,  1713
 gap= 2.2828258913380433E-5,  7.81367563541788445E-5
(P)DSYGVX in subroutine dense_eigensolve returned info=    2
 ifail= 2*0
 iclustr= 1681,  1713
 gap= 2.28282589133627842E-5,  7.81367563541632862E-5

Reusing previously generated solute cavity.
MG DL_MG: Calling solver with defect correction order = 8
MG DL_MG: Solver finished
MG Fixed charge (1/2 \int rho_f phi dr) energy term:                 604.271401
MG Mobile charge (1/2 \int rho_m phi dr) energy term:                 -0.072446
MG Osmotic pressure (-kT \int dr \sum_i c_i(r)) energy term:          -0.121456
MG Mobile ion acc. corr. (\int dr \sum_i c_i(r) * V_steric(r)):        0.025802
MG Ion atmosph. rearr. (kT \int dr \sum_i c_i(r)*ln(c_i(r)/c^0):       0.186314
MG Chemical potential (-\sum_i \mu_i \int dr c_i(r)) energy term:     -0.067224
MG                                                               --------------
MG Mean-field contribution to grand potential                        604.222391

MG Check from alternate expression:
MG Fixed charge (1/2 \int rho_f phi dr) energy term:                 604.271401
MG Minus mobile charge (-1/2 \int rho_m phi dr) energy term:           0.072446
MG -kTV\Gamma \sum_i c^bulk_i(r) (osmotic pressure) energy term:      -0.121456
MG                                                               --------------
MG Mean-field contribution to grand potential:                       604.222391

IS: MG box volume:     455016.600 a0^3. Accessible fraction: 0.870346. PBC.
IS: Charge neutralisation scheme: COUNTERIONS_AUTO.

+--------------------------- Chemical potential --------------------------+
|   # | Name | Bulk conc. |    mu_ideal   |   mu_excess   |    mu_total   |
|-------------------------------------------------------------------------|
|   1 |   Li |  3.1359885 |   0.001079151 |  -0.000356464 |   0.000722687 |
|   2 |  PF6 |  0.5038996 |  -0.000647124 |  -0.000075563 |  -0.000722687 |
|-------------------------------------------------------------------------|

+----------------- Boltzmann ion concentration and charge -----------------+
|   # | Name | Bulk conc. | Average conc. | Neutr. ratio |    Total charge |
|--------------------------------------------------------------------------|
|   1 |   Li |  3.1359885 |   3.135993616 |     0.811518 |   110.827754613 | 
|   2 |  PF6 |  0.5038996 |   0.503899707 |     0.188482 |   -17.808095277 | 
+--------------------------------------------------------------------------+
                                                    total:    93.019659336*

+---- Concentration difference from bulk value on simcell faces (mol/L) ---+
|   # | Name | Face | Bulk conc. | Actual conc. |  Difference |  RMS diff. |
|--------------------------------------------------------------------------|
|   1 |   Li | Zmin |  1.0000000 |    2.7116760 |   1.7116760 |  1.7117308 | 
|   1 |   Li | Zmax |  1.0000000 |    2.6479711 |   1.6479711 |  1.6480161 | 
+..........................................................................+
|   1 |   Li |  AVG |  1.0000000 |    2.6798236 |   1.6798236 |  1.6801755 | 
+--------------------------------------------------------------------------+
|   2 |  PF6 | Zmin |  1.0000000 |    0.3687850 |  -0.6312150 |  0.6312177 | 
|   2 |  PF6 | Zmax |  1.0000000 |    0.3776556 |  -0.6223444 |  0.6223468 | 
+..........................................................................+
|   2 |  PF6 |  AVG |  1.0000000 |    0.3732203 |  -0.6267797 |  0.6267980 | 
+--------------------------------------------------------------------------+
+--------------------------------------------------------------------------+
|      OVERALL      |  1.0000000 |    1.5265219 |   0.5265219 |  1.2680429 | 
+--------------------------------------------------------------------------+

Reusing previously generated solute cavity.
MG DL_MG: Calling solver with defect correction order = 8
MG DL_MG: Solver finished
MG Fixed charge (1/2 \int rho_f phi dr) energy term:                 623.107752
MG Mobile charge (1/2 \int rho_m phi dr) energy term:                 -0.036651
[...]
 C   342 -- C   455       -0.08     -0.00      5.40215
 C   429 -- C   537       -0.07     -0.00      5.40240
 C   348 -- C   463       -0.07     -0.00      5.40326
 C   392 -- C   540       -0.07      0.00      5.40341
 C   419 -- C   559       -0.07     -0.00      5.40385
 C   414 -- C   562       -0.07      0.00      5.40404
 C   380 -- C   494       -0.07     -0.00      5.40501
 C   419 -- C   549       -0.07     -0.00      5.40506
 C   356 -- C   497       -0.08      0.00      5.40519
 C   444 -- C   551       -0.07     -0.00      5.40565
 C   429 -- C   568       -0.07     -0.00      5.40605
 C   435 -- C   563       -0.08      0.00      5.40641
 Li   39 -- Li   49        0.12      0.00      5.40683
 C   402 -- C   537       -0.07      0.00      5.40692
 C   325 -- C   571       -0.07      0.00      5.40713
 C   427 -- C   539       -0.07      0.00      5.40716
 C   423 -- C   573       -0.07     -0.00      5.40763
 C   414 -- C   551       -0.07      0.00      5.40800
 C   405 -- C   543       -0.07     -0.00      5.40983
 C   441 -- C   455       -0.07     -0.00      5.41078
 C   449 -- C   451       -0.07      0.00      5.41169
 C   448 -- C   549       -0.07     -0.00      5.41250
 C   339 -- C   488       -0.08     -0.00      5.41284
 Li   39 -- Li   47        0.12     -0.00      5.41328
 Li   31 -- Li   49        0.10      0.00      5.42036
 Li   40 -- Li   53        0.11      0.00      5.42048
 Li    2 -- Li   25        0.14      0.00      5.42173
 C   334 -- C   471       -0.07     -0.00      5.42323
 Li   25 -- Li   31        0.09      0.00      5.42489
 Li    2 -- Li   10        0.09     -0.00      5.42578
 Li   23 -- Li   28        0.13      0.00      5.45619
 Li    7 -- Li   23        0.15     -0.00      5.45638
 Li   53 -- Li   57        0.09      0.00      5.47181
 Li    1 -- Li    9        0.07     -0.00      5.47406
 Li    4 -- C   384       -0.03      0.00      5.47808
 Li    6 -- Li   23        0.13     -0.00      5.48495
 Li   31 -- Li   39        0.10      0.00      5.48741
 Li   57 -- Li   58        0.13      0.00      5.48780
 Li   39 -- Li   40        0.11      0.00      5.49155
 Li   26 -- Li   40        0.10      0.00      5.49855
 Li   44 -- Li   50        0.10      0.00      5.50347
 Li   41 -- Li   49        0.14     -0.00      5.50792
 Li   25 -- Li   38        0.11      0.00      5.50908
 Li   12 -- C   429       -0.03      0.00      5.51324
 Li   46 -- Li   50        0.12      0.00      5.51345
 Li   63 -- Li   64        0.14      0.00      5.51427
 Li    8 -- Li   24        0.14      0.00      5.52347
 Li   57 -- Li   61        0.13      0.00      5.52817
 Li   50 -- Li   60        0.13     -0.00      5.53093
 Li   26 -- Li   43        0.13     -0.00      5.53311
 Li   60 -- Li   63        0.15      0.00      5.53837
 Li   20 -- Li   26        0.09      0.00      5.55397
 Li   40 -- Li   58        0.12     -0.00      5.55482
 Li   50 -- Li   61        0.13      0.00      5.55944
 Li    4 -- Li    6        0.10      0.00      5.56077
 Li   30 -- Li   38        0.16      0.00      5.56256
 Li    8 -- Li   27        0.12     -0.00      5.57279
 Li    6 -- C   397       -0.03     -0.00      5.57583
 Li   25 -- Li   51        0.12      0.00      5.58559
 Li   39 -- Li   50        0.10      0.00      5.58709
 Li   28 -- Li   31        0.13      0.00      5.59675
 Li   12 -- Li   27        0.12     -0.00      5.59882
 Li   22 -- Li   24        0.11     -0.00      5.60225
 Li    6 -- C   540       -0.04     -0.00      5.60255
 Li   57 -- Li   62        0.13     -0.00      5.60257
 Li    4 -- C   513       -0.02     -0.00      5.60606
 Li   58 -- Li   62        0.14      0.00      5.60722
 Li   22 -- Li   27        0.09     -0.00      5.60866
 Li   20 -- Li   30        0.16      0.00      5.60878
 Li   29 -- Li   41        0.12     -0.00      5.61206
 Li    2 -- Li   17        0.14     -0.00      5.62334
 Li   19 -- Li   29        0.16     -0.00      5.62672
 Li   38 -- Li   51        0.13      0.00      5.63069
 Li   50 -- Li   57        0.09     -0.00      5.63381
 Li   29 -- Li   48        0.14      0.00      5.63673
 Li   57 -- Li   65        0.18      0.00      5.64007
 Li    4 -- C   397       -0.03     -0.00      5.64042
 Li    6 -- Li   29        0.11      0.00      5.64112
 Li    8 -- C   543       -0.03      0.00      5.64622
 Li    5 -- Li   11        0.09      0.00      5.65296
=============================================================


============== Orbital energy and occupancy information for spin 1 =============

      Total number of orbitals:    2373
        Occupancy sum (kernel):    1115.760168371
   Occupancy sum (eigenvalues):    1115.760168371
                 HOMO-LUMO gap:       0.001224001 Eh
                 Mid-gap level:      -0.163427598 Eh

                        Orbital | Energy (Eh) | Occupancy
                            1    -1.933371151   1.0000000
                        .......   ...........   .........
                         1107    -0.177373230   0.9830257
                         1108    -0.176926203   0.9805588
                         1109    -0.176597269   0.9788930
                         1110    -0.172663553   0.9418796
                         1111    -0.171694711   0.9257317
                         1112    -0.170514918   0.9003611
                         1113    -0.167436373   0.7950680
                         1114    -0.165730107   0.7091074
                         1115    -0.165118193   0.6741456
                         1116    -0.164039599   0.6057266
                        ....... -- gap at 0K -- .........
                         1117    -0.162815598   0.5241411
                         1118    -0.159628586   0.3179751
                         1119    -0.156038340   0.1483731
                         1120    -0.154557845   0.1046708
                         1121    -0.152296812   0.0593073
                         1122    -0.151592819   0.0488724
                         1123    -0.150421760   0.0357388
                         1124    -0.146108396   0.0111915
                         1125    -0.145154421   0.0086798
                         1126    -0.143801255   0.0061358
                        .......   ...........   .........
                         2373     0.755593516   0.0000000

================================================================================

============== Orbital energy and occupancy information for spin 2 =============

      Total number of orbitals:    2373
        Occupancy sum (kernel):    1115.760168357
   Occupancy sum (eigenvalues):    1115.760168357
                 HOMO-LUMO gap:       0.001224001 Eh
                 Mid-gap level:      -0.163427599 Eh

                        Orbital | Energy (Eh) | Occupancy
                            1    -1.933371151   1.0000000
                        .......   ...........   .........
                         1107    -0.177373230   0.9830257
                         1108    -0.176926203   0.9805588
                         1109    -0.176597269   0.9788930
                         1110    -0.172663553   0.9418796
                         1111    -0.171694711   0.9257317
                         1112    -0.170514918   0.9003610
                         1113    -0.167436373   0.7950680
                         1114    -0.165730107   0.7091074
                         1115    -0.165118193   0.6741456
                         1116    -0.164039599   0.6057266
                        ....... -- gap at 0K -- .........
                         1117    -0.162815598   0.5241411
                         1118    -0.159628586   0.3179751
                         1119    -0.156038340   0.1483731
                         1120    -0.154557845   0.1046708
                         1121    -0.152296812   0.0593073
                         1122    -0.151592819   0.0488724
                         1123    -0.150421760   0.0357388
                         1124    -0.146108395   0.0111915
                         1125    -0.145154421   0.0086798
                         1126    -0.143801255   0.0061358
                        .......   ...........   .........
                         2373     0.755593516   0.0000000

================================================================================

===================== Writing canonical molecular orbitals =====================
    Spin 1
| Orbital  Energy (eV)  Norm     |
| HOMO-5   -4.67205082  1.000000 | 
| HOMO-4   -4.63994702  1.000000 | 
| HOMO-3   -4.55617554  1.000000 | 
| HOMO-2   -4.50974569  1.000000 | 
| HOMO-1   -4.49309467  1.000000 | 
| HOMO     -4.46374462  1.000000 | 
| LUMO     -4.43043785  1.000000 | 
| LUMO+1   -4.34371485  1.000000 | 
| LUMO+2   -4.24601928  1.000000 | 
| LUMO+3   -4.20573297  1.000000 | 
| LUMO+4   -4.14420711  1.000000 | 
| LUMO+5   -4.12505051  1.000000 | 
================================================================================

===================== Writing canonical molecular orbitals =====================
    Spin 2
| Orbital  Energy (eV)  Norm     |
| HOMO-5   -4.67205082  1.000000 | 
| HOMO-4   -4.63994702  1.000000 | 
| HOMO-3   -4.55617554  1.000000 | 
| HOMO-2   -4.50974570  1.000000 | 
| HOMO-1   -4.49309465  1.000000 | 
| HOMO     -4.46374463  1.000000 | 
| LUMO     -4.43043785  1.000000 | 
| LUMO+1   -4.34371484  1.000000 | 
| LUMO+2   -4.24601927  1.000000 | 
| LUMO+3   -4.20573296  1.000000 | 
| LUMO+4   -4.14420712  1.000000 | 
| LUMO+5   -4.12505051  1.000000 | 
================================================================================
 
=============== Density of States (DOS) calculation for UP spin ================
Writing "graphite_UP_DOS.txt" ... done
================================================================================
 
============== Density of States (DOS) calculation for DOWN spin ===============
Writing "graphite_DN_DOS.txt" ... done
================================================================================
 
Writing bands to file "graphite.val_bands" ... done

IS: Calculating electrolyte contribution to the atomic forces ...
================================================================================
 
***********************************************************
********** Summary of Forces (values in Eh/a) *************
*                                                         *
* ---------------------- Minimum ------------------------ *
* Atom:       227, |F|min =    0.00001296                 *
* Components:     Fx|min       Fy|min       Fz|min        *
*              -0.00000521  -0.00000826   0.00000851      *
*                                                         *
* ---------------------- Maximum ------------------------ *
* Atom:         7, |F|max =    0.00172607                 *
* Components:     Fx|max       Fy|max       Fz|max        *
*              -0.00117232  -0.00118917   0.00043691      *
*                                                         *
* ---------------- Root Mean Square Force --------------- *
*                  |F|rms =    0.00033877                 *
* Components:     Fx|rms       Fy|rms       Fz|rms        *
*               0.00023820   0.00016216   0.00017814      *
***********************************************************
 

                                                      hartree           kcal/mol
IS: NB: Energy of pure electrolyte:         -0.08316327107396         -52.185739

------------------------------ TIMING INFORMATION ------------------------------
AVERAGE TIME:    9248.045s on    128 proc(s)                                    
TOTAL TIME:      9248.050s on    128 proc(s)                                    
================= AVERAGE TIMINGS FROM ALL PROCS (CUMULATIVE) ==================
|| TAG                                    #calls    cpu time   %total  Gflops ||
|| linalg_invert_sym_matrix             :     2        0.00s   0.000%  ------ || (1 procs only)
|| density_fftbox_interp_mult_imbal     : 16338        0.00s   0.000%  ------ ||
|| sparse_set_to_garbage                :   192        0.01s   0.000%  ------ ||
|| ewald_calculate_forces_realspace     :     2        0.01s   0.000%  ------ ||
|| onetep.F90 final imbalance           :     1        0.02s   0.000%  ------ ||
|| onetep.F90 main loop imbalance       :     1        0.02s   0.000%  ------ ||
|| vdwcorrection_calculate_energy       :     2        0.03s   0.000%  ------ ||
|| vdwcorrection_calculate_forces       :     2        0.03s   0.000%  ------ ||
|| pseudopotentials_core_density        :     2        0.04s   0.000%  ------ ||
|| pseudopotentials_local_on_grid       :     2        0.04s   0.000%  ------ ||
|| ngwfs_initialise_from_radial         :     1        0.05s   0.001%  ------ ||
|| basis_extract_function_from_box      :   982        0.06s   0.001%  ------ ||
|| parallel_prepare_fd_halos_alloc      : 11553        0.06s   0.001%  ------ ||
|| restart_hamiltonian_read             :     1        0.10s   0.001%  ------ ||
|| parallel_prepare_fd_halos_request    : 11553        0.11s   0.001%  ------ ||
|| sparse_spam3toblacs_real_fast_imbal  :  1503        0.19s   0.002%  ------ ||
|| pseudopotentials_nonlocal_mat        :    25        0.26s   0.003%  ------ ||
|| pseudo_make_structure_factor         :     2        0.27s   0.003%  ------ ||
|| sparse_blacstospam3_real_fast_imbal  :  1474        0.49s   0.005%  ------ ||
|| parallel_prepare_fd_halos_satisfy    : 11553        0.52s   0.006%  ------ ||
|| restart_ngwfs_tightbox_input         :     1        0.58s   0.006%  ------ ||
|| restart_hamiltonian_write            :    13        0.63s   0.007%  ------ ||
|| pseudo_local_calculate_forces        :     2        1.06s   0.011%  ------ ||
|| sparse_init                          :     2        1.07s   0.012%  ------ ||
|| sparse_spam3toblacs_real_fast_B2     : 192.4k       1.21s   0.013%  ------ ||
|| smeared_ion_generate_potential_PBC   :     2        1.28s   0.014%  ------ ||
|| integrals_grad_spam3                 :     2        1.33s   0.014%  ------ ||
|| nonsc_forces_ngwfs_calc              :     2        1.38s   0.015%  ------ ||
|| density_init_guess_real              :     2        1.40s   0.015%  ------ ||
|| ewald_calculate_energy               :     2        1.44s   0.016%  ------ ||
|| pseudo_nlcc_calculate_forces         :     2        1.55s   0.017%  ------ ||
|| projectors_func_grad_ovlp_box_spam3  :     6        1.94s   0.021%  ------ ||
|| pseudo_nl_calculate_forces           :     2        2.21s   0.024%  ------ ||
|| energy_and_force_init_cell           :     1        2.34s   0.025%  ------ ||
|| restart_kernel_write                 :    15        2.41s   0.026%  ------ ||
|| ngwf_gradient_coeffs                 :    13        2.95s   0.032%  ------ ||
|| boltzmann_init_steric_pot            :     2        3.84s   0.042%  ------ ||
|| sparse_embed_hotelling_invert_embed  :    25        4.08s   0.044%  ------ ||
|| ewald_calculate_forces_recipspace    :     2        4.25s   0.046%  ------ ||
|| ewald_calculate_forces               :     2        4.33s   0.047%  ------ ||
|| parallel_prepare_fd_halos_clear      : 11553        4.67s   0.051%  ------ ||
|| eigenstates_calculate                :     1        4.78s   0.052%  ------ ||
|| parallel_prepare_fd_halos_comms_imbal: 11553        4.96s   0.054%  ------ ||
|| projectors_func_ovlp_box_spam3       :    25        7.60s   0.082%  ------ ||
|| fourier_filter_cell                  :   284        7.67s   0.083% 206.418 ||
|| parallel_prepare_fd_halos_comms_wait : 11553        7.97s   0.086%  ------ ||
|| projectors_init_fftbox_recip         :    83        8.05s   0.087%  ------ ||
|| fourier_apply_box_pair               :  1221       11.05s   0.119%  1.784k ||
|| sparse_trace                         :  5508       11.06s   0.120%  ------ ||
|| basis_copy_function_to_box           : 20374       17.01s   0.184%  ------ ||
|| parallel_prepare_fd_halos            : 11553       18.36s   0.198%  ------ ||
|| function_ops_brappd_ketppd_spam3     :    48       21.26s   0.230%  ------ ||
|| integrals_kinetic_spam3              :    25       27.86s   0.301%  ------ ||
|| properties_calculate                 :     1       30.65s   0.331%  ------ ||
|| projectors_gradient_batch            :    52       30.91s   0.334%  ------ ||
|| fourier_interpolate_cell             :   778       37.24s   0.403% 116.393 ||
|| sparse_product                       :  2887       46.21s   0.500%  ------ ||
|| fourier_apply_cell_backward          :  3146       51.96s   0.562% 170.276 ||
|| finite_difference_derivative         : 11553       55.13s   0.596%  ------ ||
|| basis_dot_function_with_box          : 3.150M      58.18s   0.629%  ------ ||
|| sparse_spam3toblacs_real_fast_B1     : 192.4k      60.06s   0.649%  ------ ||
|| sparse_spam3toblacs_real_fast        :  1503       64.03s   0.692%  ------ ||
|| cell_grid_extract_box_real           :  6222       70.82s   0.766%  ------ ||
|| fourier_apply_cell_forward           :  3138       74.89s   0.810% 117.833 ||
|| implicit_solvent_boltzmann_forces    :     2      104.14s   1.126%  ------ ||
|| restart_ngwfs_tightbox_output        :    12      105.84s   1.144%  ------ ||
|| sparse_blacstospam3_real_fast        :  1474      113.51s   1.227%  ------ ||
|| xc_energy_potential                  :   391      117.70s   1.273%  ------ ||
|| hamiltonian_energy_components        :     4      143.45s   1.551%  ------ ||
|| ngwf_gradient_build_batch            :    52      165.14s   1.786%  ------ ||
|| cell_grid_deposit_box_real           : 16862      183.48s   1.984%  ------ ||
|| basis_add_function_to_box            : 10.20M     189.27s   2.047%  ------ ||
|| smeared_ion_force_correction         :     4      203.48s   2.200%  ------ ||
|| implicit_solvent_soft_sphere_forces  :     2      214.50s   2.319%  ------ ||
|| dense_eigensolve                     :   716      242.46s   2.622%  ------ ||
|| ngwf_gradient_batch                  :    52      265.21s   2.868%  ------ ||
|| ngwf_gradient_lnv                    :    13      276.13s   2.986%  ------ ||
|| integrals_locpot_mat_els_batch       :   516      278.47s   3.011%  ------ ||
|| edft_diag_ngwf_ham                   :   714      301.79s   3.263%  ------ ||
|| edft_apply_smearing_operator         :   357      463.75s   5.015%  ------ ||
|| forces_calculate                     :     2      552.59s   5.975%  ------ ||
|| density_batch_row_sums               :  1556      651.03s   7.040%  ------ ||
|| density_fftbox_deposit_to_cell       : 16338      700.01s   7.569%  ------ ||
|| potential_apply_to_ngwf_batch        :   516     1012.15s  10.944%  ------ ||
|| fourier_apply_box                    : 42512     1255.96s  13.581%  2.682k ||
|| integrals_locpot_dbl_grid            :   258     1293.71s  13.989%  ------ ||
|| density_fftbox_interpolate_multiply  : 16338     1530.05s  16.545%  ------ ||
|| dl_mg_solver_calls                   :   389     1859.49s  20.107%  ------ ||
|| multigrid_calculate_hartree          :   389     1902.35s  20.570%  ------ ||
|| density_batch_interp_deposit         :  1556     3059.44s  33.082%  ------ ||
|| density_on_dbl_grid                  :   778     3851.94s  41.651%  ------ ||
|| hamiltonian_lhxc_calculate           :   383     6033.05s  65.236%  ------ ||
|| edft_calculate                       :    13     7519.50s  81.309%  ------ ||
|| ngwf_cg_optimise                     :     2     8300.54s  89.755%  ------ ||
|| energy_and_forces                    :     2     9244.21s  99.959%  ------ ||
|| total_time                           :     1     9248.05s 100.000%  ------ ||
================================================================================
Overhead of generating timer report: 
- 0 ms averaging over threads,
- 27 ms ensuring consistency across MPI ranks,
- 54 ms printing in order.

Job completed: 24-11-2023 12:30 (+0000)

onetep_launcher: ONETEP seems to have finished correctly (zero exit code).
