==================================================================================
It's Tue 31 Oct 2023 10:40:03 PM GMT.
*** Starting onetep_launcher (node nid005211, PIDs 49247 49248 49249 49250 49251 49252 49253 49254 49255 49256 49257 49258 49259 49260 49261 49262)...
    - ONETEP arguments: graphite.dat
    - Current directory: /mnt/lustre/a2fs-work3/work/e89/e89/arihant/linuc/new-lithiated/n/03/0.-1
    - Launcher executable directory: /mnt/lustre/a2fs-work3/work/e89/e89/arihant/onetep/utils
    - (-e) ONETEP executable specified through command-line: /work/e89/e89/arihant/onetep/bin/onetep.archer2_2023_cray
      ... trying /work/e89/e89/arihant/onetep/bin/onetep.archer2_2023_cray
          -> looks OK
*** Setting up environment...
    - (-s) Process stack size: unlimited
    - (-t) OMP_NUM_THREADS: 8
    - (-o) OMP_STACKSIZE: 64M
    - (-c) Maximum core file size: 2048000
    - (-d) decfort_dump_flag: n
    - (-m) I_MPI_OFA_TRANSLATION_CACHE: 0
    - (-m) I_MPI_DAPL_TRANSLATION_CACHE: 0
    - (-m) I_MPI_DAPL_UD_TRANSLATION_CACHE: 0
*** Starting ONETEP...
    - /work/e89/e89/arihant/onetep/bin/onetep.archer2_2023_cray graphite.dat
=================================================================================
_________________________________________________________________________________
 +---------------------------------------------------------------+
 |                                                               |
 |        ####### #     # ####### ####### ####### ######         |
 |        #     # ##    # #          #    #       #     #        |
 |        #     # # #   # #          #    #       #     #        |
 |        #     # #  #  # #####      #    #####   ######         |
 |        #     # #   # # #          #    #       #              |
 |        #     # #    ## #          #    #       #              |
 |        ####### #     # #######    #    ####### #              |
 |                                                               |
 |        Linear-Scaling Ab Initio Total Energy Program          |
 |                                                               |
 |          Release for academic collaborators of ODG            |
 |                                             Version 6.1.59    |
 | Remote: https://github.com/onetep-devel/onetep.git            |
 | Local branch: master                                          |
 | Commit ID: 3df6b8ca88fa1735659d3248d54c94b50edec21b           |
 | Date: Thu Oct 5 13:49:52 2023 +0200                           |
 | Working tree clean                                            |
 |                                                               |
 +---------------------------------------------------------------+
 |                                                               |
 |  Authors:                                                     |
 |  Jacek Dziedzic, Peter D. Haynes, Nicholas D. M. Hine,        |
 |  Arash A. Mostofi, Mike C. Payne and Chris-Kriton Skylaris    |
 |                                                               |
 |  Contributors:                                                |
 |  J. Aarons, L. Andrinopoulos, P. W. Avraam, R. A. Bell,       |
 |  A. Bhandari, G. A. Bramley, R. J. Charlton, S. J. Clark,     |
 |  R. J. Clements, G. C. Constantinescu, F. Corsetti,           |
 |  N. Corsini, O. Dieguez, S. M. M. Dubois, K. K. B. Duff,      |
 |  J. M. Escartin, M. Escobar Azor, A. Greco,                   |
 |  H. Helal, Q. O. Hill, L. P. Lee, J.-H. Li,                   |
 |  E. B. Linscott, G. Moynihan, D. D. O`Regan,                  |
 |  O. K. Okan, M. J. S. Phipps, C. J. Pickard,                  |
 |  J. C. A. Prentice, M. I. J. Probert, L. E. Ratcliff,         |
 |  M. Robinson, A. Ruiz Serrano, M. dos Santos Dias,            |
 |  J. S. Spencer, E. W. Tait, G. Teobaldi, D. Turban,           |
 |  V. Vitale, K. A. Wilkinson, C. Weber, J. C. Womack,          |
 |  N. Yeung and T. J. Zuehlsdorff                               |
 |                                                               |
 |                                   Copyright (c) 2004-2023     |
 |                                                               |
 |  Please cite:                                                 |
 |  "The ONETEP linear-scaling density functional theory program"|
 |   J. Chem. Phys. 152(17) 174111 (2020)                        |
 |                                                               |
 |          in all publications arising from your use of ONETEP. |
 |                                                               |
 +---------------------------------------------------------------+
 |                                                               |
 |   ONETEP is based on developments described in the following  |
 |   publications:                                               |
 |                                                               |
 |  "Nonorthogonal generalized Wannier function pseudopotential  |
 |   plane-wave method".                                         |
 |   C.-K. Skylaris, A. A. Mostofi, P. D. Haynes, O. Dieguez,    |
 |   M. C. Payne.                                                |
 |   Phys. Rev. B 66 035119 (2002).                              |
 |                                                               |
 |  "Preconditioned iterative minimization for linear-scaling    |
 |   electronic structure calculations".                         |
 |   A. A. Mostofi, P. D. Haynes, C.-K. Skylaris, M. C. Payne.   |
 |   J. Chem. Phys. 119(17), pp.8842-8848 (2003).                |
 |                                                               |
 |  "Total-energy calculations on a real space grid with         |
 |   localized functions and a plane-wave basis".                |
 |   A. A. Mostofi, C.-K. Skylaris, P. D. Haynes, M. C. Payne.   |
 |   Comput. Phys. Commun. 147, pp.788-802 (2002).               |
 |                                                               |
 |  "Accurate kinetic energy evaluation in electronic structure  |
 |   calculations with localized functions on real space grids"  |
 |   C.-K. Skylaris, A. A. Mostofi, P. D. Haynes, C. J. Pickard, |
 |   M. C. Payne.                                                |
 |   Comput. Phys. Commun. 140, pp.315-322 (2001).               |
 |                                                               |
 |  "Accurate ionic forces and geometry optimization in linear-  |
 |   scaling density-functional theory with local orbitals"      |
 |   N. D. M. Hine, M. Robinson, P. D. Haynes, C.-K. Skylaris,   |
 |   M. C. Payne, and A. A. Mostofi.                             |
 |   Phys. Rev. B 83 195102 (2011).                              |
 |                                                               |
 +---------------------------------------------------------------+

Job started: 31-10-2023 22:40 (+0000)
 
Reading parameters from file "graphite.dat" ...... done

If your calculation crashes here, before "Checking processes and threads..."
is displayed, then your stack size is insufficient.
If so, use "ulimit -s unlimited" at runtime.
You can disable this check with "check_stack_size F".

Checking processes and threads...
   Determining the default number of threads...
      No default threads set at compilation time: defaulting to 1.
      OpenMP library call suggests 8 threads.
      Hybrid MPI-OpenMP compilation detected.
      Number of MPI processes > 1.
      OMP_NUM_THREADS environment variable present and
      its value matches the one obtained from the OpenMP library call.
      Using this value as default.
      Default threads: 8
      Default applies to threads_max and threads_num_fftboxes.
      Settings in the input file override this default.
   ... done

   Running with 128 MPI processes.
   There are 16 MPI processes running on the same node as the root process.
   Each MPI process is using: 
               1 threads for simulation cell FFTs.
               1 threads for parallel FFT box operations.
               8 threads for loops over batched FFT box operations.
               8 threads in other parallel regions.
   MPI Interface: S1 (use mpi_f08) (-DMPI -DUSE_MPI_F08).
   MPI_ASYNC_PROTECTS_NONBLOCKING: Yes. MPI_SUBARRAYS_SUPPORTED: Yes.
   GPU Interface: None.
... done

Basic input checks...
Resetting ngwf_cg_rotate to TRUE for EDFT calculations
... done

Reading geometry and species blocks from file "graphite.dat" ...
  Reading POSITIONS geometry from str.xyz

  <species_atomic_set> block not found: NGWF initialisation set to SOLVE
IS: Dielectric excluded regions:
    - NONE.
IS: Assigning soft sphere radii for soft sphere solvation...
IS: No soft sphere radii specified. Default Alvarez radii used for all atoms.

----------- SOFT SPHERE RADII -----------
Li  5.333
C   4.442
-----------------------------------------

    
  Number of PPD points along a3 set to 1.  This is 
  the default value, it may have been provided also in the input file.
... done


--------------------------------------------------------------------------------
---------------------------------- INPUT FILE ----------------------------------
--------------------------------------------------------------------------------

task geometryoptimization                                                       
geom_method LBFGS                                                               
geom_continuation T                                                             
write_xyz T                                                                     
edft_grand_canonical T                                                          
edft_reference_potential  -4.42 eV                                              
edft_electrode_potential -0.1 V                                                 
edft_nelec_thres 0.000001                                                       
is_dielectric_function soft_sphere                                              
is_implicit_solvent T                                                           
is_smeared_ion_rep T                                                            
is_include_apolar T                                                             
is_solvation_properties F                                                       
is_pbe                    full                                                  
is_pbe_temperature        298.15                                                
is_pbe_bc_debye_screening T                                                     
is_pbe_neutralisation_scheme counterions_auto                                   
is_pbe_energy_tolerance 1E+50                                                   
is_bc_coarseness 5                                                              
is_bc_threshold 1E-9                                                            
is_bulk_permittivity 90.7                                                       
is_solvent_surf_tension 0.0506 N/m                                              
%block sol_ions                                                                 
Li  +1 1.0                                                                      
PF6 -1 1.0                                                                      
%endblock sol_ions                                                              
is_steric_pot_type M                                                            
is_hc_steric_dens_isovalue  0.001                                               
is_hc_steric_smearing         0.4 bohr                                          
is_steric_write T                                                               
%block species_solvent_radius                                                   
Li 3.0                                                                          
C 3.0                                                                           
%endblock species_solvent_radius                                                
multigrid_bc:   P P P                                                           
ion_ion_bc:     P P P                                                           
pspot_bc:       P P P                                                           
smeared_ion_bc: P P P                                                           
mg_max_iters_vcycle 500                                                         
mg_vcyc_smoother_iter_pre 4                                                     
mg_vcyc_smoother_iter_post 4                                                    
mg_max_res_ratio 1000.0                                                         
mg_max_iters_newton 300                                                         
edft                    : T                                                     
edft_smearing_width     : 0.1 eV                                                
spin                    : 0.0                                                   
edft_spin_fix           : 2                                                     
spin_polarized          : T                                                     
cutoff_energy :  1000 eV                                                        
kernel_cutoff : 1000 bohr                                                       
xc_functional PBE                                                               
dispersion 4                                                                    
output_detail VERBOSE                                                           
do_properties T                                                                 
cube_format F                                                                   
dx_format F                                                                     
write_denskern T                                                                
write_tightbox_ngwfs T                                                          
write_hamiltonian T                                                             
%block species                                                                  
Li Li 3  5  8.0                                                                 
C  C  6  4  8.0                                                                 
%endblock species                                                               
%block species_pot                                                              
Li '/work/e89/e89/arihant/pseudo/Li.usp'                                        
C '/work/e89/e89/arihant/pseudo/C.usp'                                          
%endblock species_pot                                                           
%BLOCK LATTICE_CART                                                             
ang                                                                             
34.16920551     0.00000000     0.00000000                                       
0.00000000    19.72760000     0.00000000                                        
0.00000000     0.00000000   100.02798000                                        
%ENDBLOCK LATTICE_CART                                                          
positions_xyz_file str.xyz                                                      
     Hash =  -000005449106932572857018

--------------------------------------------------------------------------------
-------------------------------- END INPUT FILE --------------------------------
--------------------------------------------------------------------------------


 
 ESDF WARNING(1): "ispbeenergytolerance" (esdf_physical) has no units. Assume "hartree".
<<<<<<<<<<<<<<<<<<<<<<<<<<<<<<<<< Full system >>>>>>>>>>>>>>>>>>>>>>>>>>>>>>>>>>
<<<<<<<<<<<<<<<<<<<<<<<<< Pseudopotential information >>>>>>>>>>>>>>>>>>>>>>>>>>
File: /work/e89/e89/arihant/pseudo/Li.usp [ 2001 points up to Gmax=  52.9 (1/bohr)]
  Atomic number:  3;  ionic charge:  3.000000
    Shell 1: l = 0; rc = 1.19 bohr
    Shell 2: l = 0; rc = 1.25 bohr
File: /work/e89/e89/arihant/pseudo/C.usp [ 2001 points up to Gmax=  52.9 (1/bohr)]
  Atomic number:  6;  ionic charge:  4.000000
    Shell 1: l = 0; rc = 1.19 bohr
  Core charge supplied for Nonlinear Core Corrections
<<<<<<<<<<<<<<<<<<<<<<<<<<<<<<<<<<<<<<<<>>>>>>>>>>>>>>>>>>>>>>>>>>>>>>>>>>>>>>>>

-------------------------- Atom counting information ---------------------------
Symbol    Natoms    Nngwfs    Nprojs
  Li        35       175        70
  C        512      2048       512
.......   ......    ......    ......
Totals:    547      2223       582
--------------------------------------------------------------------------------

=============================== PSINC grid sizes ===============================
                      Simulation cell:  143 x  91 x 416
                              FFT-box:  117 x  91 x 117
                                  PPD:   11 x   7 x   1
Grid space d1=  0.451541543008a0 (KE cutoff=  37.25706Eh =1013.81618eV)
Grid space d2=  0.409667706512a0 (KE cutoff=  45.26271Eh =1231.66098eV)
Grid space d3=  0.454388192297a0 (KE cutoff=  36.79171Eh =1001.15326eV)
================================================================================
  
WARNING in cell_grid_distribute:
Average of less than one 23-slab per proc, so workload cannot be
equally balanced between procs.

********************* Fourier parallelisation information **********************
       Coarse grid (whole simulation cell) dimensions:    143    91   416
          Real-space ('12') slabs/proc (min max mean):      3     4     3
         Recip-space ('23') slabs/proc (min max mean):      0     1     0
********************************************************************************

********************* Fourier parallelisation information **********************
       Double grid (whole simulation cell) dimensions:    286   182   832
          Real-space ('12') slabs/proc (min max mean):      6     7     6
         Recip-space ('23') slabs/proc (min max mean):      1     2     1
********************************************************************************

********************* Fourier parallelisation information **********************
         Fine grid (whole simulation cell) dimensions:    288   184   832
          Real-space ('12') slabs/proc (min max mean):      6     7     6
         Recip-space ('23') slabs/proc (min max mean):      1     2     1
         Grid scale modified to satisfy multigrid solver grid constraints
         Grid scale values after modifification:         2.01  2.02  2.00
********************************************************************************
ONETEP fine grid is 288 x 184 x 832 gridpoints, 64.5704 x 37.2798 x 189.0255 bohr.
FD multigrid is     288 x 184 x 832 gridpoints, 64.5704 x 37.2798 x 189.0255 bohr.


Atom SCF Calculation for Li : Z (AE atom) =   3 : Z (PS atom) =   3
Config String:
Orbitals (num,occ):  3     2.00 1.00 0.00
Orbitals   (num,l):  3        0    0    1
Real-space Grid (nr,dr,rmax): 1343    0.0059612519    8.0000000000
Spherical Bessel Basis (nsws,lmax,cutoff):   37    1  220.4959463253
Confining potential (l,width,scale):  0    3.0000000000  100.0000000000
Confining potential (l,width,scale):  1    3.0000000000  100.0000000000
  1         -3.7050169094   -5.2301177776    2.5388568852   -0.9989538802
  2         -6.0510920273   -4.2679357854    3.2724001845   -1.3422946715
  3         -6.7975021434   -3.8722499620    3.6648237887   -1.5325279919
  4         -7.0147472228   -3.7673066376    3.7864613280   -1.5966989055
  5         -7.0774132854   -3.7446783348    3.8157063634   -1.6161454686
  6         -7.0951992563   -3.7420177453    3.8204515040   -1.6217593843
  7         -7.1001226024   -3.7430426481    3.8200527077   -1.6233132433
  8         -7.1014239576   -3.7441529610    3.8191274553   -1.6237164860
  9         -7.1017352306   -3.7448434699    3.8184905098   -1.6238077213
 10         -7.1017916056   -3.7452114113    3.8181373932   -1.6238209669
 11         -7.1017908912   -3.7453946820    3.8179578223   -1.6238181917
 12         -7.1017822190   -3.7454828903    3.8178702968   -1.6238141227
 13         -7.1017768840   -3.7455162316    3.8178369316   -1.6238119017
 14         -7.1017732849   -3.7455353767    3.8178176959   -1.6238104459
 15         -7.1017709700   -3.7455463461    3.8178066371   -1.6238095253
 16         -7.1017695244   -3.7455526225    3.8178002910   -1.6238089565
 17         -7.1017686390   -3.7455562110    3.8177966534   -1.6238086105
 18         -7.1017681040   -3.7455582619    3.8177945697   -1.6238084022
 19         -7.1017677838   -3.7455594341    3.8177933764   -1.6238082778
 20         -7.1017675934   -3.7455601042    3.8177926929   -1.6238082039
 21         -7.1017674808   -3.7455604874    3.8177923014   -1.6238081602
 22         -7.1017674145   -3.7455607066    3.8177920771   -1.6238081344
Atom SCF converged after  22 iterations to a total energy of     -7.10176741

Atom SCF Calculation for C  : Z (AE atom) =   6 : Z (PS atom) =   4
Config String:
Orbitals (num,occ):  2     2.00 2.00
Orbitals   (num,l):  2        0    1
Real-space Grid (nr,dr,rmax): 1343    0.0059612519    8.0000000000
Spherical Bessel Basis (nsws,lmax,cutoff):   37    1  220.4959463253
Confining potential (l,width,scale):  0    3.0000000000  100.0000000000
Confining potential (l,width,scale):  1    3.0000000000  100.0000000000
  1         -5.8177092822   -1.2555419264    4.5135233515   -1.7471920893
  2         -5.6032261188   -1.3440047989    4.4246587726   -1.7090653419
  3         -5.5936068668   -1.3561735374    4.4140765627   -1.7034094417
  4         -5.5958505747   -1.3587284552    4.4121342699   -1.7022848669
  5         -5.5969687665   -1.3601698222    4.4109982405   -1.7017057890
  6         -5.5975400979   -1.3609792837    4.4103423276   -1.7013975981
  7         -5.5978435204   -1.3614297943    4.4099696476   -1.7012314972
  8         -5.5980096069   -1.3616786122    4.4097605138   -1.7011416075
  9         -5.5981021113   -1.3618152853    4.4096441572   -1.7010929151
 10         -5.5981539939   -1.3618900852    4.4095797860   -1.7010665406
 11         -5.5981831160   -1.3619309228    4.4095443105   -1.7010522599
 12         -5.5981994243   -1.3619531807    4.4095248124   -1.7010445305
 13         -5.5982085235   -1.3619652972    4.4095141175   -1.7010403487
 14         -5.5982135796   -1.3619718867    4.4095082606   -1.7010380870
 15         -5.5982163780   -1.3619754676    4.4095050573   -1.7010368642
 16         -5.5982179208   -1.3619774123    4.4095033073   -1.7010362032
 17         -5.5982187685   -1.3619784678    4.4095023522   -1.7010358460
 18         -5.5982192328   -1.3619790404    4.4095018314   -1.7010356530
 19         -5.5982194864   -1.3619793509    4.4095015476   -1.7010355488
 20         -5.5982196245   -1.3619795192    4.4095013931   -1.7010354925
 21         -5.5982196995   -1.3619796104    4.4095013090   -1.7010354621
Atom SCF converged after  21 iterations to a total energy of     -5.59821970

BC: Task: GEOMETRYOPTIMIZATION
BC: +++++++++++++++ Summary of boundary conditions ++++++++++++++
BC: |       Component       |     Keyword     |   Periodicity   |
BC: |                       |                 |     X  Y  Z [1] |
BC: |-----------------------------------------------------------|
BC: | Ion-ion               | ion_ion_bc [2]  |     P  P  P     |
BC: | Local pseudopotential | pspot_bc [3]    |     P  P  P     |
BC: | Multigrid solver      | multigrid_bc    |     P  P  P     |
BC: | Smeared ions          | smeared_ion_bc  |     P  P  P     |
BC: | Van der Waals         | vdw_bc          |     P  P  P     |
BC: +++++++++++++++++++++++++++++++++++++++++++++++++++++++++++++
BC: P: Periodic, O: Open.
BC: [1] Not strictly along X, Y, Z but rather along lattice vectors A1, A2, A3.
BC: [2] Also affected by: pbc_correction_cutoff, cutoff_coulomb_type,
BC:     is_smeared_ion_rep, is_implicit_solvent, openbc_ion_ion.
BC: [3] Also affected by: is_smeared_ion_rep, is_implicit_solvent, openbc_pspot.

================================================================================
<<<<<<<<<<<<<<<< Resuming previous ONETEP Geometry Optimisation >>>>>>>>>>>>>>>>
================================================================================

 Geometry Optimisation: output file is "graphite.geom"
 
 Reading continuation file "graphite.continuation" ...done
 Geometry Optimisation: read_tightbox_ngwfs parameter over-ridden to TRUE
 Geometry Optimisation: read_hamiltonian parameter over-ridden to T
 
                           -------------------------------
                                     Cell Contents
                           -------------------------------
 
            xxxxxxxxxxxxxxxxxxxxxxxxxxxxxxxxxxxxxxxxxxxxxxxxxxxxxxxxxxxx
            x  Element    Atom      Absolute co-ordinates of atoms     x
            x            Number        x           y           z       x
            x----------------------------------------------------------x
            x    Li        1       12.167829    6.697700   16.564827   x
            x    Li        2       13.015656   12.382008   16.882052   x
            x    Li        3       13.144658    8.943196   22.758027   x
            x    C         4       18.936111    9.191783   12.944309   x
            x    C         5       13.537777    9.193657   12.985157   x
            x    C         6       14.891939   11.536193   12.920786   x
            x    C         7       17.597430   11.532942   12.923366   x
            x    C         8       51.197436   27.832259   12.947212   x
            x    C         9       45.811156   27.832450   12.950046   x
            x    C        10       47.154210   30.167744   12.948794   x
            x    C        11       49.854395   30.167743   12.947031   x
            x    C        12       14.888176    6.848526   12.933018   x
            x    C        13       17.593540    6.851572   12.940515   x
            x    C        14       21.610179   13.855345   12.930375   x
            x    C        15       18.926049   13.857137   12.894694   x
            x    C        16       13.542653   13.871267   12.875191   x
            x    C        17       14.882757   16.196044   12.916614   x
            x    C        18       17.584996   16.188825   12.919337   x
            x    C        19       47.154205   25.497061   12.950637   x
            x    C        20       49.854366   25.497032   12.948944   x
            x    C        21       53.878820   32.491926   12.951979   x
            x    C        22       51.190844   32.492131   12.926927   x
            x    C        23       45.817895   32.492026   12.928575   x
            x    C        24       47.154260   34.816445   12.951757   x
            x    C        25       49.854471   34.816686   12.950205   x
            x    C        26       14.881258    2.191225   12.936048   x
            x    C        27       17.581772    2.197875   12.942733   x
            x    C        28       22.951115    2.192995   12.948772   x
            x    C        29        9.490304    2.179190   12.929042   x
            x    C        30       63.291319    2.206565   12.957685   x
            x    C        31        6.788207    2.185695   12.942390   x
            x    C        32       31.018824    2.207213   12.958694   x
            x    C        33        1.420106    2.203863   12.951940   x
            x    C        34       25.650276    2.195170   12.955586   x
            x    C        35       33.718921    2.207802   12.961079   x
            x    C        36       39.086653    2.196887   12.959380   x
            x    C        37       55.222445    2.196760   12.956797   x
            x    C        38       57.922936    2.196505   12.956087   x
            x    C        39       47.154468    2.207673   12.954788   x
            x    C        40       41.786715    2.196606   12.958558   x
            x    C        41       49.854600    2.207644   12.953345   x
            x    C        42       18.922215    4.528645   12.914966   x
            x    C        43       13.541631    4.514756   12.885483   x
            x    C        44       10.835903    4.511420   12.897866   x
            x    C        45       26.994978    4.530873   12.955855   x
            x    C        46        5.442381    4.527316   12.944408   x
            x    C        47       21.608351    4.529565   12.940114   x
            x    C        48       59.266774    4.531652   12.955683   x
            x    C        49        2.756746    4.529551   12.926106   x
            x    C        50       35.056056    4.532122   12.938760   x
            x    C        51       61.954453    4.531279   12.934771   x
            x    C        52       29.681810    4.531668   12.935756   x
            x    C        53       43.129985    4.532200   12.958883   x
            x    C        54       51.191093    4.532222   12.933964   x
            x    C        55       37.743569    4.532469   12.959832   x
            x    C        56       53.878888    4.532195   12.957414   x
            x    C        57       45.817682    4.532222   12.935429   x
            x    C        58       22.953638    6.865213   12.943005   x
            x    C        59       63.291834    6.855997   12.955369   x
            x    C        60        6.778777    6.863887   12.942904   x
            x    C        61       31.019295    6.856798   12.958151   x
            x    C        62       39.086865    6.868005   12.959852   x
            x    C        63       57.922843    6.867314   12.955475   x
            x    C        64        1.419727    6.854952   12.949672   x
            x    C        65        9.484539    6.864311   12.923212   x
            x    C        66       25.651490    6.867127   12.951723   x
            x    C        67       33.719011    6.856797   12.960870   x
            x    C        68       55.222856    6.867862   12.957481   x
            x    C        69       47.154570    6.856782   12.959359   x
            x    C        70       41.786502    6.867856   12.959704   x
            x    C        71       49.854487    6.856814   12.957750   x
            x    C        72       51.198049    9.192411   12.957500   x
            x    C        73       59.260119    9.192264   12.933754   x
            x    C        74        2.763757    9.192567   12.949450   x
            x    C        75       26.988561    9.192232   12.932118   x
            x    C        76       35.062929    9.192403   12.961042   x
            x    C        77       43.123390    9.192454   12.938074   x
            x    C        78       53.885576    9.192381   12.935822   x
            x    C        79       61.947315    9.192172   12.956172   x
            x    C        80        5.447113    9.191676   12.931615   x
            x    C        81       21.618757    9.192201   12.919983   x
            x    C        82       29.675646    9.192421   12.956428   x
            x    C        83       37.750344    9.192605   12.938511   x
            x    C        84       45.810841    9.192523   12.960533   x
            x    C        85       10.827260    9.192663   12.955828   x
            x    C        86       47.154553   11.528243   12.960232   x
            x    C        87       55.222852   11.516825   12.958956   x
            x    C        88       63.291953   11.528059   12.955609   x
            x    C        89       31.019544   11.528106   12.956912   x
            x    C        90       39.086938   11.517182   12.960443   x
            x    C        91       49.854566   11.528011   12.958557   x
            x    C        92       57.922856   11.516974   12.956179   x
            x    C        93        1.419619   11.529538   12.950816   x
            x    C        94       33.719232   11.527979   12.959785   x
            x    C        95       41.786556   11.517103   12.960725   x
            x    C        96        6.787264   11.521021   12.965659   x
            x    C        97       22.954644   11.519210   12.939090   x
            x    C        98       25.652057   11.517695   12.949883   x
            x    C        99        9.485042   11.524380   12.991518   x
            x    C       100       45.817698   13.852767   12.938440   x
            x    C       101       43.130065   13.852764   12.960747   x
            x    C       102       51.191260   13.852559   12.936731   x
            x    C       103       59.267394   13.852748   12.955318   x
            x    C       104       35.056272   13.852773   12.938372   x
            x    C       105       53.878969   13.852582   12.959434   x
            x    C       106       61.954452   13.853145   12.933830   x
            x    C       107       29.682222   13.853277   12.934554   x
            x    C       108       37.743613   13.852742   12.960087   x
            x    C       109        2.759093   13.854285   12.927553   x
            x    C       110       26.995641   13.853901   12.953173   x
            x    C       111        5.444664   13.856095   12.954071   x
            x    C       112       10.836025   13.866316   12.969946   x
            x    C       113       47.154621   16.177374   12.960142   x
            x    C       114       55.222692   16.187925   12.958847   x
            x    C       115       41.786863   16.188485   12.960363   x
            x    C       116       49.854755   16.177213   12.958473   x
            x    C       117       39.086853   16.188260   12.960205   x
            x    C       118       63.292288   16.177901   12.957380   x
            x    C       119       31.019411   16.177810   12.958506   x
            x    C       120       57.923108   16.188148   12.956814   x
            x    C       121       33.719191   16.177146   12.961313   x
            x    C       122        6.790857   16.196252   12.958126   x
            x    C       123        1.421820   16.179958   12.954709   x
            x    C       124       25.651038   16.189918   12.951146   x
            x    C       125       22.952556   16.192759   12.939935   x
            x    C       126        9.492077   16.201772   12.961277   x
            x    C       127       51.197948   18.512739   12.956061   x
            x    C       128       45.811207   18.512932   12.958967   x
            x    C       129       43.123405   18.513048   12.937255   x
            x    C       130       53.885900   18.512710   12.935299   x
            x    C       131       35.062391   18.513171   12.960987   x
            x    C       132       59.260140   18.512619   12.934758   x
            x    C       133       37.750175   18.512730   12.937980   x
            x    C       134       61.947963   18.513109   12.957221   x
            x    C       135       29.675891   18.513660   12.956837   x
            x    C       136        2.765540   18.515047   12.954320   x
            x    C       137       26.988438   18.514946   12.933098   x
            x    C       138        5.454959   18.516970   12.931553   x
            x    C       139       10.836268   18.524111   12.919765   x
            x    C       140       18.924802   18.518232   12.935645   x
            x    C       141       21.615084   18.517002   12.918933   x
            x    C       142       13.530379   18.526680   12.934745   x
            x    C       143       47.154390   20.848385   12.955892   x
            x    C       144       49.854670   20.848045   12.954315   x
            x    C       145       55.222824   20.836848   12.957636   x
            x    C       146       41.786914   20.837457   12.958426   x
            x    C       147       31.018616   20.849367   12.958310   x
            x    C       148       39.086763   20.837329   12.958656   x
            x    C       149       63.292378   20.848657   12.957465   x
            x    C       150       33.718950   20.848871   12.960119   x
            x    C       151       57.923212   20.837543   12.956744   x
            x    C       152        1.422408   20.850043   12.956892   x
            x    C       153        6.794390   20.841439   12.954126   x
            x    C       154       22.949800   20.840026   12.952440   x
            x    C       155       25.650595   20.838798   12.956702   x
            x    C       156       14.875187   20.855497   12.944911   x
            x    C       157        9.497196   20.841449   12.948286   x
            x    C       158       17.578243   20.854841   12.943301   x
            x    C       159       51.191166   23.172561   12.929961   x
            x    C       160       45.817961   23.172751   12.931639   x
            x    C       161       43.130096   23.172837   12.955772   x
            x    C       162       59.266889   23.172389   12.955565   x
            x    C       163       37.743699   23.172790   12.957509   x
            x    C       164       53.879080   23.172422   12.954893   x
            x    C       165       26.993770   23.174311   12.957817   x
            x    C       166       35.055707   23.173173   12.937099   x
            x    C       167        2.760998   23.173822   12.935911   x
            x    C       168       29.680858   23.173188   12.935890   x
            x    C       169       61.954735   23.172732   12.935358   x
            x    C       170       10.844046   23.177202   12.952072   x
            x    C       171       18.915058   23.175554   12.929709   x
            x    C       172        5.450809   23.174219   12.957891   x
            x    C       173       21.604709   23.175651   12.953306   x
            x    C       174       13.532656   23.178115   12.929510   x
            x    C       175       55.222891   25.507800   12.954204   x
            x    C       176       31.018352   25.497624   12.958330   x
            x    C       177       39.086851   25.508156   12.956304   x
            x    C       178       63.292477   25.496375   12.959255   x
            x    C       179        6.795891   25.509205   12.959316   x
            x    C       180       25.649295   25.509231   12.957359   x
            x    C       181       33.718078   25.497255   12.960080   x
            x    C       182       41.787106   25.508178   12.955109   x
            x    C       183       57.923213   25.507784   12.954637   x
            x    C       184        1.422950   25.496602   12.959260   x
            x    C       185       22.948270   25.509371   12.957572   x
            x    C       186       14.873058   25.499009   12.958737   x
            x    C       187        9.498201   25.509012   12.959557   x
            x    C       188       17.575143   25.499216   12.958301   x
            x    C       189       18.920491   27.832799   12.960378   x
            x    C       190       26.986817   27.832686   12.934985   x
            x    C       191       35.061794   27.832795   12.958886   x
            x    C       192       59.260596   27.831923   12.932889   x
            x    C       193        2.767091   27.831641   12.958266   x
            x    C       194       10.838265   27.832071   12.940668   x
            x    C       195       21.610333   27.832883   12.936485   x
            x    C       196       29.674447   27.832499   12.956789   x
            x    C       197       37.749834   27.832506   12.934542   x
            x    C       198       53.885490   27.832003   12.928476   x
            x    C       199       61.948381   27.831877   12.957955   x
            x    C       200        5.456781   27.831624   12.937953   x
            x    C       201       13.526747   27.832485   12.962118   x
            x    C       202       43.123489   27.832512   12.930542   x
            x    C       203       14.873016   30.166192   12.961041   x
            x    C       204       22.947950   30.156317   12.958834   x
            x    C       205       31.017879   30.167658   12.957774   x
            x    C       206       63.292362   30.166914   12.958647   x
            x    C       207        6.795502   30.154421   12.961282   x
            x    C       208       17.574804   30.166293   12.960527   x
            x    C       209       25.649102   30.156384   12.958312   x
            x    C       210       33.717797   30.168079   12.959172   x
            x    C       211        1.423024   30.166589   12.960121   x
            x    C       212        9.497755   30.154382   12.961963   x
            x    C       213       39.086728   30.156882   12.955481   x
            x    C       214       55.222516   30.156355   12.952953   x
            x    C       215       57.922846   30.156088   12.953420   x
            x    C       216       41.787058   30.156776   12.954003   x
            x    C       217       13.532409   32.486906   12.933426   x
            x    C       218       10.843919   32.486412   12.955790   x
            x    C       219       18.913860   32.490163   12.934975   x
            x    C       220       26.993082   32.491386   12.958493   x
            x    C       221        2.760532   32.489507   12.937166   x
            x    C       222       21.603589   32.490127   12.956682   x
            x    C       223       29.680493   32.492059   12.936015   x
            x    C       224       61.954249   32.490776   12.934664   x
            x    C       225        5.450229   32.489608   12.958041   x
            x    C       226       35.055344   32.492046   12.936014   x
            x    C       227       59.266648   32.491470   12.953542   x
            x    C       228       37.743406   32.492091   12.955679   x
            x    C       229       43.130051   32.492109   12.952854   x
            x    C       230       14.873714   34.810459   12.951545   x
            x    C       231       22.948768   34.825210   12.956412   x
            x    C       232        9.496701   34.820964   12.949586   x
            x    C       233       17.576481   34.811134   12.952648   x
            x    C       234        6.793891   34.821681   12.949923   x
            x    C       235       31.018117   34.815836   12.958716   x
            x    C       236       63.291782   34.815153   12.959013   x
            x    C       237       25.649460   34.826287   12.957880   x
            x    C       238        1.421839   34.813531   12.957783   x
            x    C       239       39.086595   34.827588   12.955707   x
            x    C       240       33.718477   34.816262   12.960056   x
            x    C       241       57.922827   34.826686   12.953836   x
            x    C       242       55.222547   34.827419   12.953866   x
            x    C       243       41.786853   34.827510   12.954547   x
            x    C       244       18.923788   37.147300   12.949220   x
            x    C       245       13.528883   37.140209   12.942533   x
            x    C       246       10.835862   37.138660   12.917816   x
            x    C       247       21.613582   37.148448   12.928484   x
            x    C       248        2.764093   37.148350   12.951010   x
            x    C       249       26.987477   37.150311   12.934850   x
            x    C       250        5.453394   37.146357   12.925362   x
            x    C       251       29.674944   37.151459   12.957253   x
            x    C       252       61.947299   37.150501   12.958316   x
            x    C       253       35.062135   37.151747   12.960439   x
            x    C       254       59.259748   37.151415   12.933848   x
            x    C       255       37.750010   37.152137   12.936364   x
            x    C       256       43.123326   37.151944   12.933344   x
            x    C       257       51.197802   37.151955   12.951232   x
            x    C       258       53.885703   37.151899   12.931546   x
            x    C       259       45.811109   37.151909   12.953878   x
            x    Li      260        0.058659   37.148598    9.395477   x
            x    Li      261        0.062129   27.832053    9.398071   x
            x    Li      262        0.058110   18.513563    9.395505   x
            x    Li      263        0.052294    9.191582    9.392178   x
            x    Li      264        8.138738   32.482622    9.394959   x
            x    Li      265        8.138567   23.180379    9.393081   x
            x    Li      266        8.128330   13.859895    9.402972   x
            x    Li      267        8.103899    4.505942    9.376707   x
            x    Li      268       16.259414    9.182189    9.384322   x
            x    Li      269       16.241924   18.542051    9.377316   x
            x    Li      270       16.232524   27.832431    9.393599   x
            x    Li      271       16.241166   37.129818    9.388105   x
            x    Li      272       24.311776   32.487496    9.397032   x
            x    Li      273       24.312034   23.176014    9.394431   x
            x    Li      274       24.323258   13.855518    9.384619   x
            x    Li      275       24.319487    4.527853    9.389430   x
            x    Li      276       32.385660   37.152739    9.396649   x
            x    Li      277       32.385423   27.832409    9.396543   x
            x    Li      278       32.385467   18.510231    9.396458   x
            x    Li      279       32.386717    9.191437    9.397775   x
            x    Li      280       40.444013   32.490190    9.390177   x
            x    Li      281       40.444373   23.172386    9.392674   x
            x    Li      282       40.444322   13.853216    9.399160   x
            x    Li      283       40.444016    4.531257    9.398075   x
            x    Li      284       48.491751   37.153338    9.388965   x
            x    Li      285       48.491439   27.831858    9.382619   x
            x    Li      286       48.492085   18.510263    9.394775   x
            x    Li      287       48.492189    9.190995    9.398671   x
            x    Li      288       56.553834   32.490086    9.389370   x
            x    Li      289       56.553590   23.171777    9.392249   x
            x    Li      290       56.553671   13.852405    9.396064   x
            x    Li      291       56.553547    4.531866    9.395361   x
            x    C       292       18.917582    9.192224    5.831607   x
            x    C       293       13.525710    9.192082    5.857652   x
            x    C       294       14.870707   11.528685    5.851026   x
            x    C       295       17.572864   11.528757    5.837298   x
            x    C       296       51.198688   27.832239    5.811239   x
            x    C       297       45.810499   27.832273    5.808960   x
            x    C       298       47.154783   30.167836    5.809051   x
            x    C       299       49.854590   30.167724    5.810006   x
            x    C       300       14.870538    6.855364    5.850194   x
            x    C       301       17.572931    6.855572    5.835811   x
            x    C       302       21.600006   13.852994    5.820942   x
            x    C       303       18.911105   13.853326    5.850583   x
            x    C       304       13.532258   13.853514    5.870577   x
            x    C       305       14.870780   16.177894    5.832512   x
            x    C       306       17.572432   16.177558    5.823566   x
            x    C       307       47.154739   25.496670    5.809552   x
            x    C       308       49.854661   25.496680    5.810594   x
            x    C       309       53.880150   32.492094    5.812094   x
            x    C       310       51.192426   32.492235    5.833074   x
            x    C       311       45.816813   32.492431    5.832580   x
            x    C       312       47.154597   34.816843    5.811519   x
            x    C       313       49.854561   34.816919    5.812601   x
            x    C       314       14.870562    2.206529    5.836029   x
            x    C       315       17.572150    2.206984    5.827626   x
            x    C       316       22.943566    2.196585    5.818076   x
            x    C       317        9.498382    2.195418    5.829394   x
            x    C       318       63.295037    2.207956    5.820830   x
            x    C       319        6.796655    2.195694    5.819845   x
            x    C       320       31.015033    2.208000    5.822756   x
            x    C       321        1.425693    2.207905    5.822001   x
            x    C       322       25.644460    2.196560    5.815869   x
            x    C       323       33.715631    2.208054    5.822613   x
            x    C       324       39.085455    2.197182    5.821987   x
            x    C       325       55.224310    2.196727    5.817577   x
            x    C       326       57.924744    2.196947    5.820138   x
            x    C       327       47.154585    2.208216    5.815935   x
            x    C       328       41.785309    2.197202    5.819623   x
            x    C       329       49.854503    2.208073    5.816711   x
            x    C       330       18.911040    4.531178    5.851220   x
            x    C       331       13.531734    4.530778    5.870980   x
            x    C       332       10.842571    4.531095    5.845796   x
            x    C       333       26.988767    4.532439    5.816045   x
            x    C       334        5.451920    4.532003    5.821867   x
            x    C       335       21.599795    4.531797    5.822708   x
            x    C       336       59.268648    4.532585    5.822498   x
            x    C       337        2.763434    4.532272    5.843524   x
            x    C       338       35.053775    4.532598    5.845393   x
            x    C       339       61.957022    4.532554    5.842656   x
            x    C       340       29.677062    4.532540    5.841980   x
            x    C       341       43.129240    4.532669    5.821155   x
            x    C       342       51.192263    4.532538    5.840702   x
            x    C       343       37.741712    4.532695    5.824624   x
            x    C       344       53.880168    4.532562    5.818556   x
            x    C       345       45.816699    4.532618    5.840978   x
            x    C       346       22.944026    6.867618    5.820015   x
            x    C       347       63.295153    6.856981    5.818373   x
            x    C       348        6.796375    6.867845    5.833807   x
            x    C       349       31.015031    6.857020    5.821575   x
            x    C       350       39.085508    6.868052    5.824862   x
            x    C       351       57.924848    6.868042    5.821717   x
            x    C       352        1.425595    6.857001    5.821622   x
            x    C       353        9.497914    6.867104    5.848895   x
            x    C       354       25.644788    6.867928    5.815713   x
            x    C       355       33.715776    6.856842    5.822103   x
            x    C       356       55.224379    6.868044    5.820839   x
            x    C       357       47.154452    6.856978    5.820527   x
            x    C       358       41.785345    6.868085    5.823703   x
            x    C       359       49.854517    6.857037    5.821165   x
            x    C       360       51.198559    9.192492    5.824048   x
            x    C       361       59.262674    9.192534    5.842330   x
            x    C       362        2.769860    9.192463    5.826831   x
            x    C       363       26.982800    9.192507    5.838200   x
            x    C       364       35.059994    9.192463    5.822720   x
            x    C       365       43.122956    9.192432    5.845385   x
            x    C       366       53.886454    9.192541    5.844110   x
            x    C       367       61.950974    9.192504    5.818340   x
            x    C       368        5.458317    9.192327    5.856478   x
            x    C       369       21.606509    9.192414    5.844654   x
            x    C       370       29.671057    9.192501    5.821297   x
            x    C       371       37.747841    9.192470    5.846263   x
            x    C       372       45.810400    9.192484    5.822579   x
            x    C       373       10.836588    9.191897    5.879866   x
            x    C       374       47.154486   11.527908    5.823322   x
            x    C       375       55.224350   11.516930    5.820969   x
            x    C       376       63.295422   11.527974    5.819273   x
            x    C       377       31.015063   11.527916    5.821346   x
            x    C       378       39.085583   11.516778    5.824377   x
            x    C       379       49.854529   11.527967    5.823983   x
            x    C       380       57.924931   11.516921    5.821356   x
            x    C       381        1.425972   11.527849    5.823795   x
            x    C       382       33.715729   11.528033    5.822476   x
            x    C       383       41.785427   11.516754    5.823612   x
            x    C       384        6.796767   11.516795    5.839457   x
            x    C       385       22.944085   11.517155    5.817847   x
            x    C       386       25.644921   11.516982    5.812766   x
            x    C       387        9.498268   11.517063    5.851340   x
            x    C       388       45.816803   13.852274    5.844564   x
            x    C       389       43.129348   13.852149    5.823222   x
            x    C       390       51.192326   13.852395    5.844516   x
            x    C       391       59.268747   13.852333    5.823036   x
            x    C       392       35.053807   13.852309    5.845102   x
            x    C       393       53.880222   13.852441    5.820991   x
            x    C       394       61.957304   13.852284    5.842650   x
            x    C       395       29.677104   13.852488    5.839770   x
            x    C       396       37.741800   13.852203    5.824973   x
            x    C       397        2.764159   13.852353    5.847751   x
            x    C       398       26.988841   13.852581    5.812737   x
            x    C       399        5.452967   13.852417    5.832378   x
            x    C       400       10.843032   13.853117    5.848993   x
            x    C       401       47.154635   16.176562    5.820772   x
            x    C       402       55.224410   16.188091    5.821117   x
            x    C       403       41.785426   16.187643    5.822723   x
            x    C       404       49.854636   16.176761    5.821660   x
            x    C       405       39.085605   16.187687    5.823933   x
            x    C       406       63.295506   16.176703    5.820146   x
            x    C       407       31.014956   16.176970    5.820568   x
            x    C       408       57.924888   16.187890    5.822525   x
            x    C       409       33.715633   16.176829    5.821484   x
            x    C       410        6.797552   16.188045    5.830961   x
            x    C       411        1.426386   16.176591    5.823038   x
            x    C       412       25.644528   16.188387    5.813022   x
            x    C       413       22.943759   16.188241    5.815671   x
            x    C       414        9.498720   16.188572    5.836474   x
            x    C       415       51.198533   18.512289    5.821593   x
            x    C       416       45.810508   18.512100    5.819366   x
            x    C       417       43.123219   18.512109    5.842162   x
            x    C       418       53.886374   18.512417    5.842336   x
            x    C       419       35.059908   18.512452    5.822023   x
            x    C       420       59.262755   18.512512    5.843636   x
            x    C       421       37.747838   18.512348    5.844526   x
            x    C       422       61.951247   18.512384    5.820739   x
            x    C       423       29.670873   18.512687    5.822048   x
            x    C       424        2.770611   18.512387    5.824726   x
            x    C       425       26.982448   18.512576    5.839432   x
            x    C       426        5.459368   18.512437    5.847084   x
            x    C       427       10.837252   18.512876    5.849837   x
            x    C       428       18.916996   18.512864    5.813542   x
            x    C       429       21.605731   18.512781    5.836797   x
            x    C       430       13.526111   18.512974    5.824472   x
            x    C       431       47.154709   20.847660    5.817220   x
            x    C       432       49.854564   20.847583    5.818299   x
            x    C       433       55.224380   20.836779    5.818074   x
            x    C       434       41.785396   20.836600    5.818666   x
            x    C       435       31.014848   20.848135    5.823511   x
            x    C       436       39.085465   20.836710    5.820695   x
            x    C       437       63.295563   20.848224    5.821635   x
            x    C       438       33.715619   20.848155    5.822616   x
            x    C       439       57.924896   20.836993    5.820704   x
            x    C       440        1.426402   20.847975    5.823024   x
            x    C       441        6.797631   20.836729    5.821469   x
            x    C       442       22.943499   20.836956    5.816592   x
            x    C       443       25.644462   20.837034    5.817730   x
            x    C       444       14.870559   20.848292    5.814005   x
            x    C       445        9.498904   20.836902    5.821763   x
            x    C       446       17.572428   20.848245    5.810361   x
            x    C       447       51.192460   23.172275    5.836266   x
            x    C       448       45.816870   23.172139    5.835685   x
            x    C       449       43.129362   23.172113    5.816068   x
            x    C       450       59.268873   23.172521    5.822743   x
            x    C       451       37.741432   23.172381    5.821331   x
            x    C       452       53.880305   23.172374    5.815239   x
            x    C       453       26.988517   23.172352    5.820266   x
            x    C       454       35.053483   23.172532    5.843905   x
            x    C       455        2.764505   23.172458    5.844230   x
            x    C       456       29.676992   23.172657    5.844479   x
            x    C       457       61.957410   23.172470    5.844706   x
            x    C       458       10.842969   23.172218    5.819459   x
            x    C       459       18.910724   23.172433    5.835906   x
            x    C       460        5.453184   23.172260    5.820254   x
            x    C       461       21.599551   23.172285    5.818105   x
            x    C       462       13.532065   23.172405    5.838120   x
            x    C       463       55.224447   25.507784    5.815354   x
            x    C       464       31.014856   25.496949    5.822616   x
            x    C       465       39.085331   25.507767    5.818646   x
            x    C       466       63.295563   25.496770    5.822050   x
            x    C       467        6.797261   25.507915    5.818458   x
            x    C       468       25.644616   25.507980    5.820079   x
            x    C       469       33.715492   25.496844    5.820661   x
            x    C       470       41.785210   25.507764    5.815603   x
            x    C       471       57.924984   25.507781    5.819902   x
            x    C       472        1.426189   25.496847    5.822631   x
            x    C       473       22.943731   25.507744    5.819970   x
            x    C       474       14.870516   25.496813    5.816700   x
            x    C       475        9.498518   25.507834    5.818446   x
            x    C       476       17.572174   25.496622    5.815711   x
            x    C       477       18.916670   27.832422    5.818829   x
            x    C       478       26.982702   27.832285    5.843558   x
            x    C       479       35.059696   27.832323    5.819193   x
            x    C       480       59.262780   27.832128    5.841959   x
            x    C       481        2.770231   27.832189    5.823066   x
            x    C       482       10.836882   27.832302    5.841017   x
            x    C       483       21.605516   27.832308    5.841989   x
            x    C       484       29.670998   27.832265    5.823752   x
            x    C       485       37.747429   27.832273    5.839738   x
            x    C       486       53.886392   27.832252    5.834594   x
            x    C       487       61.951315   27.832143    5.821879   x
            x    C       488        5.458794   27.832175    5.841814   x
            x    C       489       13.526034   27.832423    5.819869   x
            x    C       490       43.123126   27.832269    5.833896   x
            x    C       491       14.870406   30.168102    5.819415   x
            x    C       492       22.943633   30.156854    5.820388   x
            x    C       493       31.014905   30.167494    5.822851   x
            x    C       494       63.295530   30.167511    5.821970   x
            x    C       495        6.797231   30.156498    5.818559   x
            x    C       496       17.571999   30.168192    5.818464   x
            x    C       497       25.644572   30.156519    5.819780   x
            x    C       498       33.715402   30.167770    5.820446   x
            x    C       499        1.426056   30.167447    5.822909   x
            x    C       500        9.498472   30.156731    5.818930   x
            x    C       501       39.085311   30.156833    5.816148   x
            x    C       502       55.224404   30.156573    5.812751   x
            x    C       503       57.924936   30.156479    5.817452   x
            x    C       504       41.785174   30.156801    5.813072   x
            x    C       505       13.532004   32.492349    5.842068   x
            x    C       506       10.842852   32.492187    5.821983   x
            x    C       507       18.910459   32.492472    5.840083   x
            x    C       508       26.988612   32.492208    5.820917   x
            x    C       509        2.764290   32.491860    5.843910   x
            x    C       510       21.599346   32.492410    5.821068   x
            x    C       511       29.677054   32.491962    5.844274   x
            x    C       512       61.957237   32.491903    5.843231   x
            x    C       513        5.453017   32.491926    5.820815   x
            x    C       514       35.053429   32.492123    5.842069   x
            x    C       515       59.268738   32.491829    5.820407   x
            x    C       516       37.741377   32.492300    5.818833   x
            x    C       517       43.129296   32.492479    5.813010   x
            x    C       518       14.870341   34.816332    5.819290   x
            x    C       519       22.943348   34.827776    5.820473   x
            x    C       520        9.498675   34.827173    5.823688   x
            x    C       521       17.572061   34.816511    5.816031   x
            x    C       522        6.797407   34.827229    5.821680   x
            x    C       523       31.014877   34.816524    5.822726   x
            x    C       524       63.295221   34.816110    5.820220   x
            x    C       525       25.644370   34.827631    5.820311   x
            x    C       526        1.426071   34.816250    5.821712   x
            x    C       527       39.085373   34.827882    5.818741   x
            x    C       528       33.715601   34.816462    5.820690   x
            x    C       529       57.924704   34.827422    5.818732   x
            x    C       530       55.224272   34.827693    5.815281   x
            x    C       531       41.785333   34.827961    5.816001   x
            x    C       532       18.916620   37.151724    5.818910   x
            x    C       533       13.525952   37.151407    5.828640   x
            x    C       534       10.836939   37.151330    5.850235   x
            x    C       535       21.605357   37.151986    5.840697   x
            x    C       536        2.770013   37.151767    5.822642   x
            x    C       537       26.982464   37.152148    5.841839   x
            x    C       538        5.458738   37.151412    5.842854   x
            x    C       539       29.670891   37.152056    5.823380   x
            x    C       540       61.950920   37.152077    5.820164   x
            x    C       541       35.059859   37.152190    5.821197   x
            x    C       542       59.262527   37.152050    5.841740   x
            x    C       543       37.747716   37.152351    5.842802   x
            x    C       544       43.123146   37.152527    5.838136   x
            x    C       545       51.198419   37.152251    5.815971   x
            x    C       546       53.886301   37.152170    5.838072   x
            x    C       547       45.810492   37.152454    5.813893   x
            xxxxxxxxxxxxxxxxxxxxxxxxxxxxxxxxxxxxxxxxxxxxxxxxxxxxxxxxxxxx
 

LBFGS: continuation file name is "graphite.continuation"
 LBFGS: Restarting previous  geometry optimization.
 avg_mass=  21302.846029652104
 Enthalpy contributions:
                  total energy=  -2.95402946E+003 Eh
        diagonal pressure term=   0.00000000E+000 Eh
    off-diagonal pressure term=   0.00000000E+000 Eh
 LBFGS: finished iteration   0  with enthalpy= -2.954029464671E+003 Eh
  
 +-----------+-----------------+-----------------+------------+-----+ <-- LBFGS
 | Parameter |      value      |    tolerance    |    units   | OK? | <-- LBFGS
 +-----------+-----------------+-----------------+------------+-----+ <-- LBFGS
 |  dE/ion   |   0.000000E+000 |   1.000000E-006 |         Eh | No  | <-- LBFGS
 |  |F|max   |   1.886577E-003 |   2.000000E-003 |    Eh/Bohr | Yes | <-- LBFGS
 |  |dR|max  |   0.000000E+000 |   5.000000E-003 |       Bohr | No  | <-- LBFGS
 +-----------+-----------------+-----------------+------------+-----+ <-- LBFGS
  

================================================================================
 Starting LBFGS iteration    1 ...
================================================================================
 Writing xyz coordinates to file "graphite.xyz" ... done

 Writing continuation file "graphite.continuation" ...done
 Backing up NGWFs to file "graphite.tightbox_ngwfs.bfgs_back" ... done
 Backing up Hamiltonian to file "graphite.ham.bfgs_back" ... done
  
 +------------+-------------+-------------+-----------------+ <-- min LBFGS
 |    Step    |   lambda    |   F.delta   |    enthalpy     | <-- min LBFGS
 +------------+-------------+-------------+-----------------+ <-- min LBFGS
 |  previous  |    0.000000 |    0.000026 |    -2954.029465 | <-- min LBFGS
 +------------+-------------+-------------+-----------------+ <-- min LBFGS
  

--------------------------------------------------------------------------------
 LBFGS: starting iteration   1 with trial guess (lambda=    1.000000)
--------------------------------------------------------------------------------
 
                           -------------------------------
                                     Cell Contents
                           -------------------------------
 
            xxxxxxxxxxxxxxxxxxxxxxxxxxxxxxxxxxxxxxxxxxxxxxxxxxxxxxxxxxxx
            x  Element    Atom      Absolute co-ordinates of atoms     x
            x            Number        x           y           z       x
            x----------------------------------------------------------x
            x    Li        1       12.167949    6.697967   16.565017   x
            x    Li        2       13.014701   12.380914   16.881842   x
            x    Li        3       13.144231    8.943559   22.756600   x
            x    C         4       18.935941    9.191944   12.944085   x
            x    C         5       13.537972    9.193993   12.984531   x
            x    C         6       14.891810   11.535782   12.920996   x
            x    C         7       17.597587   11.532744   12.923293   x
            x    C         8       51.197397   27.832260   12.947198   x
            x    C         9       45.811237   27.832443   12.950050   x
            x    C        10       47.154103   30.167799   12.948807   x
            x    C        11       49.854543   30.167715   12.947052   x
            x    C        12       14.888361    6.848418   12.932980   x
            x    C        13       17.593468    6.851484   12.940528   x
            x    C        14       21.610330   13.855552   12.930498   x
            x    C        15       18.926233   13.857432   12.894716   x
            x    C        16       13.542324   13.871668   12.875861   x
            x    C        17       14.882498   16.196080   12.916483   x
            x    C        18       17.585376   16.188817   12.919021   x
            x    C        19       47.154089   25.497013   12.950630   x
            x    C        20       49.854549   25.497020   12.948940   x
            x    C        21       53.878940   32.491952   12.951981   x
            x    C        22       51.190840   32.492152   12.927058   x
            x    C        23       45.817922   32.492058   12.928694   x
            x    C        24       47.154131   34.816450   12.951764   x
            x    C        25       49.854625   34.816576   12.950223   x
            x    C        26       14.880776    2.191340   12.935830   x
            x    C        27       17.582125    2.198058   12.942567   x
            x    C        28       22.950900    2.193184   12.948698   x
            x    C        29        9.490640    2.179585   12.928787   x
            x    C        30       63.291256    2.206656   12.957629   x
            x    C        31        6.787949    2.185736   12.942226   x
            x    C        32       31.018655    2.207205   12.958696   x
            x    C        33        1.420100    2.203957   12.952009   x
            x    C        34       25.650531    2.195197   12.955529   x
            x    C        35       33.719028    2.207792   12.961064   x
            x    C        36       39.086496    2.196791   12.959386   x
            x    C        37       55.222364    2.196692   12.956797   x
            x    C        38       57.923099    2.196448   12.956108   x
            x    C        39       47.154278    2.207706   12.954796   x
            x    C        40       41.786900    2.196587   12.958565   x
            x    C        41       49.854719    2.207656   12.953360   x
            x    C        42       18.922184    4.528360   12.915124   x
            x    C        43       13.541922    4.514526   12.886025   x
            x    C        44       10.835800    4.511172   12.898025   x
            x    C        45       26.994974    4.530802   12.955806   x
            x    C        46        5.442510    4.527335   12.944192   x
            x    C        47       21.608609    4.529365   12.940173   x
            x    C        48       59.266641    4.531777   12.955688   x
            x    C        49        2.756827    4.529554   12.926314   x
            x    C        50       35.055965    4.532158   12.938840   x
            x    C        51       61.954375    4.531237   12.934836   x
            x    C        52       29.681879    4.531764   12.935894   x
            x    C        53       43.129985    4.532232   12.958870   x
            x    C        54       51.191086    4.532266   12.934055   x
            x    C        55       37.743611    4.532480   12.959821   x
            x    C        56       53.878966    4.532205   12.957401   x
            x    C        57       45.817707    4.532238   12.935517   x
            x    C        58       22.953742    6.865367   12.943076   x
            x    C        59       63.291584    6.855956   12.955322   x
            x    C        60        6.778908    6.863822   12.942726   x
            x    C        61       31.019084    6.856707   12.958191   x
            x    C        62       39.086736    6.868008   12.959866   x
            x    C        63       57.923002    6.867329   12.955517   x
            x    C        64        1.419825    6.855006   12.949708   x
            x    C        65        9.484456    6.864500   12.923485   x
            x    C        66       25.651594    6.867184   12.951669   x
            x    C        67       33.719158    6.856758   12.960868   x
            x    C        68       55.222693    6.867908   12.957497   x
            x    C        69       47.154362    6.856756   12.959354   x
            x    C        70       41.786739    6.867899   12.959726   x
            x    C        71       49.854629    6.856793   12.957763   x
            x    C        72       51.197954    9.192407   12.957483   x
            x    C        73       59.260202    9.192270   12.933872   x
            x    C        74        2.763631    9.192640   12.949465   x
            x    C        75       26.988663    9.192294   12.932141   x
            x    C        76       35.062816    9.192405   12.961002   x
            x    C        77       43.123422    9.192470   12.938156   x
            x    C        78       53.885672    9.192385   12.935899   x
            x    C        79       61.947403    9.192216   12.956149   x
            x    C        80        5.447424    9.191832   12.931806   x
            x    C        81       21.618662    9.192235   12.920110   x
            x    C        82       29.675680    9.192398   12.956439   x
            x    C        83       37.750322    9.192577   12.938586   x
            x    C        84       45.810872    9.192521   12.960514   x
            x    C        85       10.826754    9.192722   12.955995   x
            x    C        86       47.154377   11.528260   12.960238   x
            x    C        87       55.222684   11.516789   12.958930   x
            x    C        88       63.291824   11.528204   12.955586   x
            x    C        89       31.019351   11.528156   12.956975   x
            x    C        90       39.086792   11.517161   12.960436   x
            x    C        91       49.854651   11.528031   12.958590   x
            x    C        92       57.923078   11.516970   12.956186   x
            x    C        93        1.419817   11.529399   12.950742   x
            x    C        94       33.719328   11.528064   12.959815   x
            x    C        95       41.786799   11.517085   12.960727   x
            x    C        96        6.786965   11.520921   12.965739   x
            x    C        97       22.954644   11.519007   12.939157   x
            x    C        98       25.652213   11.517633   12.949809   x
            x    C        99        9.484974   11.524322   12.991211   x
            x    C       100       45.817760   13.852766   12.938523   x
            x    C       101       43.130052   13.852768   12.960731   x
            x    C       102       51.191243   13.852545   12.936831   x
            x    C       103       59.267226   13.852631   12.955332   x
            x    C       104       35.056156   13.852776   12.938449   x
            x    C       105       53.879053   13.852551   12.959414   x
            x    C       106       61.954418   13.853142   12.933973   x
            x    C       107       29.682296   13.853208   12.934689   x
            x    C       108       37.743711   13.852699   12.960070   x
            x    C       109        2.759107   13.854406   12.927617   x
            x    C       110       26.995590   13.853993   12.953102   x
            x    C       111        5.444774   13.856212   12.954248   x
            x    C       112       10.836257   13.866180   12.969766   x
            x    C       113       47.154408   16.177294   12.960127   x
            x    C       114       55.222636   16.187959   12.958840   x
            x    C       115       41.787014   16.188458   12.960388   x
            x    C       116       49.854868   16.177191   12.958473   x
            x    C       117       39.086703   16.188315   12.960218   x
            x    C       118       63.292172   16.177749   12.957380   x
            x    C       119       31.019199   16.177805   12.958500   x
            x    C       120       57.923269   16.188192   12.956807   x
            x    C       121       33.719333   16.177110   12.961294   x
            x    C       122        6.790740   16.196115   12.958223   x
            x    C       123        1.421903   16.179791   12.954586   x
            x    C       124       25.651294   16.189882   12.951088   x
            x    C       125       22.952467   16.192628   12.939923   x
            x    C       126        9.492107   16.201888   12.961125   x
            x    C       127       51.197885   18.512676   12.956059   x
            x    C       128       45.811266   18.512902   12.958961   x
            x    C       129       43.123403   18.513027   12.937349   x
            x    C       130       53.885904   18.512678   12.935410   x
            x    C       131       35.062355   18.513162   12.960968   x
            x    C       132       59.260101   18.512588   12.934872   x
            x    C       133       37.750171   18.512769   12.938087   x
            x    C       134       61.948164   18.513235   12.957272   x
            x    C       135       29.675909   18.513582   12.956848   x
            x    C       136        2.765518   18.515139   12.954226   x
            x    C       137       26.988345   18.514936   12.933221   x
            x    C       138        5.455002   18.516980   12.931641   x
            x    C       139       10.836049   18.523923   12.919967   x
            x    C       140       18.924885   18.518321   12.935707   x
            x    C       141       21.614978   18.517076   12.919117   x
            x    C       142       13.530372   18.526550   12.934449   x
            x    C       143       47.154263   20.848370   12.955914   x
            x    C       144       49.854814   20.848126   12.954337   x
            x    C       145       55.222668   20.836825   12.957627   x
            x    C       146       41.787077   20.837363   12.958428   x
            x    C       147       31.018528   20.849340   12.958304   x
            x    C       148       39.086613   20.837373   12.958652   x
            x    C       149       63.292190   20.848546   12.957513   x
            x    C       150       33.719074   20.848837   12.960128   x
            x    C       151       57.923327   20.837415   12.956724   x
            x    C       152        1.422590   20.849901   12.956918   x
            x    C       153        6.794280   20.841472   12.954037   x
            x    C       154       22.949644   20.839934   12.952356   x
            x    C       155       25.650691   20.838694   12.956681   x
            x    C       156       14.875156   20.855609   12.944952   x
            x    C       157        9.497371   20.841591   12.948398   x
            x    C       158       17.578265   20.854900   12.943429   x
            x    C       159       51.191122   23.172530   12.930081   x
            x    C       160       45.817980   23.172723   12.931754   x
            x    C       161       43.130005   23.172833   12.955770   x
            x    C       162       59.266819   23.172377   12.955533   x
            x    C       163       37.743739   23.172788   12.957497   x
            x    C       164       53.879183   23.172447   12.954900   x
            x    C       165       26.993690   23.174276   12.957826   x
            x    C       166       35.055674   23.173149   12.937208   x
            x    C       167        2.761012   23.173772   12.936047   x
            x    C       168       29.681034   23.173165   12.935995   x
            x    C       169       61.954702   23.172777   12.935455   x
            x    C       170       10.844022   23.177124   12.952014   x
            x    C       171       18.915109   23.175541   12.929776   x
[...]
 C    40 -- C    62       -0.07     -0.00      5.39541
 C    90 -- C   115       -0.07     -0.00      5.39543
 C   495 -- C   520       -0.07      0.00      5.39543
 C   380 -- C   402       -0.07     -0.00      5.39544
 C   326 -- C   356       -0.07     -0.00      5.39544
 C   407 -- C   438       -0.07      0.00      5.39544
 C   349 -- C   382       -0.07      0.00      5.39545
 C   355 -- C   377       -0.07      0.00      5.39545
 C   433 -- C   471       -0.07     -0.00      5.39547
 C   375 -- C   408       -0.07     -0.00      5.39547
 C   492 -- C   525       -0.07     -0.00      5.39548
 C   500 -- C   522       -0.07     -0.00      5.39549
 C   325 -- C   351       -0.07     -0.00      5.39551
 C   466 -- C   499       -0.07      0.00      5.39551
 C    71 -- C    86       -0.07      0.00      5.39552
 C   116 -- C   143       -0.07      0.00      5.39552
 C   320 -- C   528       -0.07      0.00      5.39554
 C   443 -- C   473       -0.07     -0.00      5.39555
 C   215 -- C   242       -0.07     -0.00      5.39555
 C   314 -- C   521       -0.07     -0.00      5.39556
 C   442 -- C   468       -0.07      0.00      5.39556
 C   204 -- C   237       -0.07      0.00      5.39557
 C    87 -- C   120       -0.07     -0.00      5.39559
 C   352 -- C   376       -0.07      0.00      5.39560
 C   472 -- C   494       -0.07      0.00      5.39560
 C   409 -- C   435       -0.07      0.00      5.39563
 C    38 -- C    68       -0.07      0.00      5.39564
 C   497 -- C   519       -0.07      0.00      5.39565
 C   323 -- C   523       -0.07      0.00      5.39565
 C     7 -- C    17       -0.08      0.00      5.39567
 C   322 -- C   346       -0.07     -0.00      5.39569
 C   503 -- C   530       -0.07     -0.00      5.39570
 C    27 -- C   230       -0.07      0.00      5.39572
 C   321 -- C   524       -0.07      0.00      5.39576
 C   445 -- C   467       -0.07      0.00      5.39577
 C   406 -- C   440       -0.07      0.00      5.39578
 C   385 -- C   412       -0.07     -0.00      5.39584
 C    35 -- C   235       -0.07      0.00      5.39585
 C   347 -- C   381       -0.07     -0.00      5.39585
 C   386 -- C   413       -0.07     -0.00      5.39586
 C   474 -- C   496       -0.07      0.00      5.39588
 C   441 -- C   475       -0.07      0.00      5.39591
 C   316 -- C   354       -0.07     -0.00      5.39593
 C   387 -- C   410       -0.07      0.00      5.39595
 C   315 -- C   518       -0.07      0.00      5.39598
 C   476 -- C   491       -0.07      0.00      5.39600
 C   411 -- C   437       -0.07      0.00      5.39601
 C   318 -- C   526       -0.07      0.00      5.39601
 C   305 -- C   446       -0.07      0.00      5.39605
 C   121 -- C   147       -0.07     -0.00      5.39612
 C    18 -- C   156       -0.07     -0.00      5.39614
 C    64 -- C    88       -0.07     -0.00      5.39624
 C   155 -- C   185       -0.07     -0.00      5.39625
 C   306 -- C   444       -0.07      0.00      5.39632
 C   384 -- C   414       -0.07      0.00      5.39651
 C   118 -- C   152       -0.07     -0.00      5.39658
 C    59 -- C    93       -0.07      0.00      5.39672
 C   319 -- C   353       -0.07     -0.00      5.39677
 C   317 -- C   348       -0.07      0.00      5.39724
 C    30 -- C   238       -0.07     -0.00      5.39734
 C     5 -- C   112       -0.07      0.00      5.39741
 C   294 -- C   301       -0.07      0.00      5.39754
 C   295 -- C   300       -0.07      0.00      5.39786
 C     4 -- C     5       -0.07     -0.00      5.39843
 C    28 -- C    66       -0.07      0.00      5.39850
 C    98 -- C   125       -0.07      0.00      5.39869
 C    31 -- C    65       -0.07      0.00      5.39957
 C    12 -- C    65       -0.07      0.00      5.40340
 C     5 -- C    44       -0.06     -0.00      5.40588
 C    96 -- C   126       -0.07      0.00      5.40598
 C     6 -- C    99       -0.07      0.00      5.40730
 C     6 -- C    13       -0.07      0.00      5.40810
 C    43 -- C    85       -0.07      0.00      5.40868
 C    16 -- C    85       -0.07      0.00      5.40999
 C     7 -- C    12       -0.07      0.00      5.41142
 C    29 -- C    60       -0.07      0.00      5.41227
 Li    2 -- C    85       -0.04     -0.01      5.50507
=============================================================

(P)DSYGVX in subroutine dense_eigensolve returned info=    2
 ifail= 2*0
 iclustr= 626,  659
 gap= 2.E-5,  1.E-5
(P)DSYGVX in subroutine dense_eigensolve returned info=    2
 ifail= 2*0
 iclustr= 626,  659
 gap= 2.E-5,  1.E-5

============== Orbital energy and occupancy information for spin 1 =============

      Total number of orbitals:    2223
        Occupancy sum (kernel):    1071.975259956
   Occupancy sum (eigenvalues):    1071.975259956
                 HOMO-LUMO gap:       0.000255739 Eh
                 Mid-gap level:      -0.155712442 Eh

                        Orbital | Energy (Eh) | Occupancy
                            1    -1.958149619   1.0000000
                        .......   ...........   .........
                         1063    -0.173654005   0.9823958
                         1064    -0.173376763   0.9809798
                         1065    -0.173233593   0.9802349
                         1066    -0.172061090   0.9732109
                         1067    -0.171982332   0.9726568
                         1068    -0.168594143   0.9334574
                         1069    -0.167946250   0.9219856
                         1070    -0.167604711   0.9148740
                         1071    -0.156031399   0.3153530
                         1072    -0.155840311   0.3043150
                        ....... -- gap at 0K -- .........
                         1073    -0.155584573   0.2901951
                         1074    -0.155186614   0.2680417
                         1075    -0.154298428   0.2243684
                         1076    -0.154191647   0.2191356
                         1077    -0.150752033   0.0985430
                         1078    -0.150512773   0.0930234
                         1079    -0.150085599   0.0839305
                         1080    -0.150054144   0.0833690
                         1081    -0.149053924   0.0638956
                         1082    -0.148146796   0.0511122
                        .......   ...........   .........
                         2223     0.720949065   0.0000000

================================================================================

============== Orbital energy and occupancy information for spin 2 =============

      Total number of orbitals:    2223
        Occupancy sum (kernel):    1071.060332918
   Occupancy sum (eigenvalues):    1071.060332918
                 HOMO-LUMO gap:       0.000236827 Eh
                 Mid-gap level:      -0.155470136 Eh

                        Orbital | Energy (Eh) | Occupancy
                            1    -1.955228608   1.0000000
                        .......   ...........   .........
                         1063    -0.173617866   0.9822359
                         1064    -0.173250353   0.9803206
                         1065    -0.173054307   0.9792991
                         1066    -0.172040388   0.9730667
                         1067    -0.171927062   0.9722324
                         1068    -0.168017270   0.9233563
                         1069    -0.167925430   0.9215680
                         1070    -0.156075149   0.3179440
                         1071    -0.155821394   0.3032199
                         1072    -0.155588550   0.2903346
                        ....... -- gap at 0K -- .........
                         1073    -0.155351723   0.2767238
                         1074    -0.154307252   0.2247468
                         1075    -0.154210319   0.2201330
                         1076    -0.150776942   0.0991304
                         1077    -0.150500634   0.0927452
                         1078    -0.150167193   0.0856357
                         1079    -0.150049338   0.0832761
                         1080    -0.149039561   0.0636942
                         1081    -0.148138887   0.0510051
                         1082    -0.146821289   0.0365244
                        .......   ...........   .........
                         2223     0.720949662   0.0000000

================================================================================

===================== Writing canonical molecular orbitals =====================
    Spin 1
| Orbital  Energy (eV)  Norm     |
| HOMO-5   -4.67987739  1.000000 | 
| HOMO-4   -4.58768006  1.000000 | 
| HOMO-3   -4.57004999  1.000000 | 
| HOMO-2   -4.56075627  1.000000 | 
| HOMO-1   -4.24583042  1.000000 | 
| HOMO     -4.24063064  1.000000 | 
| LUMO     -4.23367164  1.000000 | 
| LUMO+1   -4.22284264  1.000000 | 
| LUMO+2   -4.19867386  1.000000 | 
| LUMO+3   -4.19576820  1.000000 | 
| LUMO+4   -4.10217155  1.000000 | 
| LUMO+5   -4.09566096  1.000000 | 
================================================================================

===================== Writing canonical molecular orbitals =====================
    Spin 2
| Orbital  Energy (eV)  Norm     |
| HOMO-5   -4.67837341  1.000000 | 
| HOMO-4   -4.57198255  1.000000 | 
| HOMO-3   -4.56948347  1.000000 | 
| HOMO-2   -4.24702090  1.000000 | 
| HOMO-1   -4.24011589  1.000000 | 
| HOMO     -4.23377986  1.000000 | 
| LUMO     -4.22733548  1.000000 | 
| LUMO+1   -4.19891399  1.000000 | 
| LUMO+2   -4.19627631  1.000000 | 
| LUMO+3   -4.10284937  1.000000 | 
| LUMO+4   -4.09533063  1.000000 | 
| LUMO+5   -4.08625725  1.000000 | 
================================================================================
 
=============== Density of States (DOS) calculation for UP spin ================
Writing "graphite_UP_DOS.txt" ... done
================================================================================
 
============== Density of States (DOS) calculation for DOWN spin ===============
Writing "graphite_DN_DOS.txt" ... done
================================================================================
 
Writing bands to file "graphite.val_bands" ... done

IS: Calculating electrolyte contribution to the atomic forces ...
================================================================================
 
***********************************************************
********** Summary of Forces (values in Eh/a) *************
*                                                         *
* ---------------------- Minimum ------------------------ *
* Atom:       273, |F|min =    0.00001630                 *
* Components:     Fx|min       Fy|min       Fz|min        *
*              -0.00000462   0.00000478  -0.00001488      *
*                                                         *
* ---------------------- Maximum ------------------------ *
* Atom:         3, |F|max =    0.00179167                 *
* Components:     Fx|max       Fy|max       Fz|max        *
*              -0.00049733   0.00043725  -0.00166479      *
*                                                         *
* ---------------- Root Mean Square Force --------------- *
*                  |F|rms =    0.00024515                 *
* Components:     Fx|rms       Fy|rms       Fz|rms        *
*               0.00018157   0.00011150   0.00012122      *
***********************************************************
 

                                                      hartree           kcal/mol
IS: NB: Energy of pure electrolyte:         -0.08108168271039         -50.879523

------------------------------ TIMING INFORMATION ------------------------------
AVERAGE TIME:    4417.289s on    128 proc(s)                                    
TOTAL TIME:      4417.295s on    128 proc(s)                                    
================= AVERAGE TIMINGS FROM ALL PROCS (CUMULATIVE) ==================
|| TAG                                    #calls    cpu time   %total  Gflops ||
|| linalg_invert_sym_matrix             :     4        0.00s   0.000%  ------ || (1 procs only)
|| density_fftbox_interp_mult_imbal     :  5440        0.00s   0.000%  ------ ||
|| sparse_set_to_garbage                :    32        0.00s   0.000%  ------ ||
|| onetep.F90 main loop imbalance       :     1        0.01s   0.000%  ------ ||
|| onetep.F90 final imbalance           :     1        0.01s   0.000%  ------ ||
|| vdwcorrection_calculate_forces       :     4        0.02s   0.000%  ------ ||
|| ewald_calculate_forces_realspace     :     4        0.02s   0.000%  ------ ||
|| vdwcorrection_calculate_energy       :     4        0.02s   0.001%  ------ ||
|| basis_extract_function_from_box      :   416        0.04s   0.001%  ------ ||
|| sparse_spam3toblacs_real_fast_imbal  :   496        0.06s   0.001%  ------ ||
|| pseudopotentials_core_density        :     4        0.07s   0.002%  ------ ||
|| pseudopotentials_local_on_grid       :     4        0.08s   0.002%  ------ ||
|| parallel_prepare_fd_halos_alloc      : 20100        0.11s   0.002%  ------ ||
|| sparse_blacstospam3_real_fast_imbal  :   488        0.16s   0.004%  ------ ||
|| pseudopotentials_nonlocal_mat        :     6        0.17s   0.004%  ------ ||
|| parallel_prepare_fd_halos_request    : 20100        0.19s   0.004%  ------ ||
|| restart_hamiltonian_write            :     5        0.24s   0.005%  ------ ||
|| restart_hamiltonian_read             :     4        0.30s   0.007%  ------ ||
|| sparse_spam3toblacs_real_fast_B2     : 63488        0.39s   0.009%  ------ ||
|| pseudo_make_structure_factor         :     4        0.50s   0.011%  ------ ||
|| parallel_prepare_fd_halos_satisfy    : 20100        0.90s   0.020%  ------ ||
|| ngwf_gradient_coeffs                 :     5        0.91s   0.021%  ------ ||
|| restart_kernel_write                 :     9        1.29s   0.029%  ------ ||
|| smeared_ion_generate_potential_PBC   :     4        1.31s   0.030%  ------ ||
|| sparse_init                          :     4        1.43s   0.032%  ------ ||
|| projectors_func_ovlp_box_spam3       :     6        1.73s   0.039%  ------ ||
|| pseudo_local_calculate_forces        :     4        2.01s   0.045%  ------ ||
|| sparse_embed_hotelling_invert_embed  :     6        2.16s   0.049%  ------ ||
|| energy_and_force_init_cell           :     1        2.39s   0.054%  ------ ||
|| integrals_grad_spam3                 :     4        2.49s   0.056%  ------ ||
|| ewald_calculate_energy               :     4        2.49s   0.056%  ------ ||
|| nonsc_forces_ngwfs_calc              :     4        2.49s   0.056%  ------ ||
|| density_init_guess_real              :     4        2.66s   0.060%  ------ ||
|| fourier_filter_cell                  :   112        3.03s   0.069% 205.760 ||
|| pseudo_nlcc_calculate_forces         :     4        3.07s   0.069%  ------ ||
|| function_ops_brappd_ketppd_spam3     :     8        3.19s   0.072%  ------ ||
|| projectors_func_grad_ovlp_box_spam3  :    12        3.68s   0.083%  ------ ||
|| projectors_init_fftbox_recip         :    38        3.69s   0.083%  ------ ||
|| sparse_trace                         :  1876        3.73s   0.084%  ------ ||
|| fourier_apply_box_pair               :   435        4.06s   0.092%  1.731k ||
|| pseudo_nl_calculate_forces           :     4        4.16s   0.094%  ------ ||
|| eigenstates_calculate                :     1        4.54s   0.103%  ------ ||
|| restart_ngwfs_tightbox_input         :     4        5.37s   0.122%  ------ ||
|| integrals_kinetic_spam3              :     6        5.96s   0.135%  ------ ||
|| basis_copy_function_to_box           :  7155        6.10s   0.138%  ------ ||
|| boltzmann_init_steric_pot            :     4        7.12s   0.161%  ------ ||
|| parallel_prepare_fd_halos_comms_imbal: 20100        7.51s   0.170%  ------ ||
|| ewald_calculate_forces_recipspace    :     4        7.58s   0.172%  ------ ||
|| ewald_calculate_forces               :     4        7.78s   0.176%  ------ ||
|| parallel_prepare_fd_halos_clear      : 20100        8.06s   0.182%  ------ ||
|| fourier_interpolate_cell             :   272       13.31s   0.301% 113.884 ||
|| parallel_prepare_fd_halos_comms_wait : 20100       13.52s   0.306%  ------ ||
|| sparse_product                       :  1111       14.31s   0.324%  ------ ||
|| projectors_gradient_batch            :    20       14.59s   0.330%  ------ ||
|| fourier_apply_cell_backward          :  1156       18.63s   0.422% 174.542 ||
|| sparse_spam3toblacs_real_fast_B1     : 63488       19.49s   0.441%  ------ ||
|| sparse_spam3toblacs_real_fast        :   496       20.77s   0.470%  ------ ||
|| basis_dot_function_with_box          : 1.228M      22.58s   0.511%  ------ ||
|| cell_grid_extract_box_real           :  2240       26.53s   0.601%  ------ ||
|| properties_calculate                 :     1       28.67s   0.649%  ------ ||
|| restart_ngwfs_tightbox_output        :     4       29.91s   0.677%  ------ ||
|| parallel_prepare_fd_halos            : 20100       30.40s   0.688%  ------ ||
|| sparse_blacstospam3_real_fast        :   488       34.11s   0.772%  ------ ||
|| xc_energy_potential                  :   140       41.57s   0.941%  ------ ||
|| cell_grid_deposit_box_real           :  5960       57.86s   1.310%  ------ ||
|| ngwf_gradient_build_batch            :    20       62.12s   1.406%  ------ ||
|| fourier_apply_cell_forward           :  1140       67.73s   1.533%  47.332 ||
|| basis_add_function_to_box            : 3.607M      68.41s   1.549%  ------ ||
|| dense_eigensolve                     :   244       77.52s   1.755%  ------ ||
|| finite_difference_derivative         : 20100       94.41s   2.137%  ------ ||
|| edft_diag_ngwf_ham                   :   242       97.07s   2.197%  ------ ||
|| ngwf_gradient_batch                  :    20      101.09s   2.289%  ------ ||
|| ngwf_gradient_lnv                    :     5      105.07s   2.379%  ------ ||
|| integrals_locpot_mat_els_batch       :   204      107.18s   2.426%  ------ ||
|| hamiltonian_energy_components        :     4      134.08s   3.035%  ------ ||
|| edft_apply_smearing_operator         :   121      145.95s   3.304%  ------ ||
|| density_batch_row_sums               :   544      190.08s   4.303%  ------ ||
|| implicit_solvent_boltzmann_forces    :     4      197.98s   4.482%  ------ ||
|| density_fftbox_deposit_to_cell       :  5440      215.81s   4.886%  ------ ||
|| potential_apply_to_ngwf_batch        :   204      371.81s   8.417%  ------ ||
|| implicit_solvent_soft_sphere_forces  :     4      402.11s   9.103%  ------ ||
|| smeared_ion_force_correction         :     8      424.64s   9.613%  ------ ||
|| integrals_locpot_dbl_grid            :   102      479.74s  10.860%  ------ ||
|| fourier_apply_box                    : 14609      486.76s  11.019%  2.350k ||
|| dl_mg_solver_calls                   :   136      500.15s  11.323%  ------ ||
|| multigrid_calculate_hartree          :   136      515.92s  11.680%  ------ ||
|| density_fftbox_interpolate_multiply  :  5440      577.87s  13.082%  ------ ||
|| density_batch_interp_deposit         :   544     1044.62s  23.649%  ------ ||
|| forces_calculate                     :     4     1082.76s  24.512%  ------ ||
|| density_on_dbl_grid                  :   272     1309.59s  29.647%  ------ ||
|| hamiltonian_lhxc_calculate           :   128     1838.37s  41.618%  ------ ||
|| edft_calculate                       :     5     2324.16s  52.615%  ------ ||
|| ngwf_cg_optimise                     :     4     2618.99s  59.290%  ------ ||
|| energy_and_forces                    :     4     4394.45s  99.483%  ------ ||
|| total_time                           :     1     4417.29s 100.000%  ------ ||
================================================================================
Overhead of generating timer report: 
- 0 ms averaging over threads,
- 12 ms ensuring consistency across MPI ranks,
- 3 ms printing in order.

Job completed: 31-10-2023 23:53 (+0000)

onetep_launcher: ONETEP seems to have finished correctly (zero exit code).
